<?xml version="1.0"?>
<VTKFile type="UnstructuredGrid"  version="0.1"  >
<UnstructuredGrid>
<Piece  NumberOfPoints="1515" NumberOfCells="2858">
<Points>
<DataArray  type="Float64"  NumberOfComponents="3"  format="ascii">-0.5 -0.0001 0  -0.5 -0.5 0  0.5 -0.5 0  0.5 0.5 0  -0.5 0.5 0  -0.5 0.0001 0  0 0.0001 0  0 -0.0001 0  0 -0.5 0  0 0.5 0  0.5 0 0  -0.25 0.0001 0  -0.25 0.5 0  -0.25 -0.0001 0  0.25 0.5 0  0.25 -0.5 0  0.2500374937493749 0.1875187468746875 0  0.5 -0.25 0  0.25002499 -0.125 0  -0.125 -0.25005 0  -0.125 0.25005 0  0.5 0.25 0  -0.25 -0.5 0  -0.5 -0.25005 0  -0.5 0.25005 0  0.125 -0.3124916691673332 0  0.125 0.3437443727884549 0  0.3187498332767468 -0.3187498332767468 0  -0.3125 -0.3125124974994999 0  -0.3125 0.1875875025005001 0  0.04436566007004419 0.1785185187387698 0  0.3437706224620182 0.3437706224620182 0  -0.359407810625422 0.3594296915637348 0  -0.359407810625422 -0.1406703084362652 0  0.08209948494863104 -0.1484533219292508 0  0.3281296842191969 0.03125624875007487 0  0.1612337437527647 0.0454945319044936 0  0.5 -0.125 0  0.3736573308633327 -0.1902100573489204 0  -0.05632383965282133 -0.1281636979131719 0  -0.1875249975 -0.37501249874975 0  -0.02161822989173764 0.354580025951059 0  -0.2160757009003203 -0.1393657085918785 0  -0.01783801249259284 -0.3526895391541273 0  -0.2160757009003203 0.3607342914081215 0  -0.125 0.0001 0  -0.125 -0.0001 0  -0.1875249975 0.1250875012502501 0  0.5 0.125 0  -0.375 0.0001 0  -0.375 -0.0001 0  -0.5 0.125075 0  -0.375 -0.5 0  -0.5 -0.375025 0  0.3828324180271084 0.1875 0  -0.125 0.5 0  0.5 -0.375 0  0.375 -0.5 0  -0.125 -0.5 0  -0.375 0.5 0  0.125 0.5 0  0.125 -0.5 0  0.5 0.375 0  0.375 0.5 0  -0.5 -0.125075 0  -0.5 0.375025 0  -0.06200365993838185 0.1102431244359298 0  0.3921286730834987 -0.07100003899567721 0  -0.001178265146973292 -0.2342725669761844 0  0.219639755882476 -0.3848202826230195 0  0.1764909845376315 -0.2113963654501196 0  0.2343901841136658 0.3031458088961128 0  0.1561195030924493 -0.06553680147678266 0  0.1485501800845649 0.1522005597879607 0  0.07430925316253632 -0.4062458345836666 0  0.1875 0.4218721863942274 0  0.0625 0.4218721863942275 0  0.2776974776570886 -0.2252166395728846 0  -0.2310132101974821 0.2556304703469177 0  -0.2310132101974821 -0.2444695296530824 0  -0.3906265628125469 -0.3906296862497968 0  -0.3906265628125469 0.1094703137502032 0  -0.2812687506255001 0.09383750062512503 0  -0.2812687506255002 -0.406262499374875 0  -0.4101472686723712 0.2071199254696213 0  -0.4101472686723712 -0.2929800745303787 0  0.2470275540227946 -0.02585328932041452 0  0.4068247800249947 0.09140209453477602 0  -0.1176406316218027 0.3957739114529177 0  0.4080574838155757 -0.2809016730332933 0  0.3125 -0.4219344228213859 0  0.4088486496673779 -0.4088486496673779 0  0.1167033063099591 0.2455046542815969 0  -0.02381261413756171 0.2533622281544139 0  0.02735543470987723 0.08802303626707711 0  0.3144655814479235 0.2551097933485553 0  0.2801337679615206 0.4118308473117793 0  0.4101587089138863 0.2773478512831281 0  -0.09689860681079282 -0.4078094624324944 0  0.213976519574722 -0.2941495474331945 0  -0.318965898965983 0.2781458178971435 0  -0.3125 0.4357826538464097 0  -0.318965898965983 -0.2219541821028565 0  -0.3125 -0.06431734615359029 0  -0.4357704230694522 0.3125375 0  -0.4357704230694522 -0.1875625 0  0.4114732283419867 0.4114732283419867 0  -0.4234646583494089 0.4234743507195528 0  -0.4375 -0.0001 0  -0.4375 0.0001 0  0.3164258563077259 0.1230517971377134 0  0.04931026741366369 0.300666438050672 0  0.2304865209107167 0.1009680687096636 0  0.02061587644269779 -0.08558486663800556 0  0.09390691211100699 -0.2329943594667239 0  0.08896107880644889 -0.006809950500825342 0  -0.1875 0.5 0  -0.1392552316473008 -0.09019077220175532 0  0.4170297537744737 0.008612617817243748 0  -0.4243694331702185 -0.08478222235936261 0  -0.1416933693607303 -0.1709733993077484 0  -0.09511425322415427 -0.3261090638251909 0  -0.04508670308176045 0.4323857419859515 0  -0.4375 -0.5 0  -0.1187189609291948 0.1687838380963837 0  0.3117722643778845 -0.07351457101062323 0  0.1513445599038777 -0.4251753449096755 0  0.04472177709904164 -0.3011105058468416 0  0.001740722226491711 -0.4250539693950984 0  -0.03075788851996441 0.178560406845558 0  0.1766313586052732 -0.1370243862559475 0  -0.0761550533906552 0.3051296889632589 0  -0.1485469487091727 0.3268133048125818 0  0.1930083860569673 0.2386735170085497 0  -0.0625 -0.0001 0  -0.0625 0.0001 0  -0.2878141094770303 -0.1320687430427478 0  -0.2875995151119595 0.3444544772933048 0  -0.24076159142329 -0.07161431170272106 0  -0.24076159142329 0.428485688297279 0  0.4263700347703773 -0.1373417231816959 0  -0.1856875708107399 0.19821478019016 0  0.09322297310683496 0.06338537237428626 0  -0.07466041728962823 -0.1981228067401687 0  0.009513123991135172 -0.1613319531958586 0  0.3092144166352111 -0.1625850961304104 0  0.3437404121717113 -0.2534277690952264 0  0.4379744025071972 -0.2176839612869874 0  -0.1297061011176702 0.07587858854060507 0  -0.1875 0.0001 0  -0.1875 -0.0001 0  -0.1875 -0.5 0  -0.1633110600051376 -0.3090045011162743 0  -0.21877499875025 0.06259999875025002 0  -0.21875 -0.4375124968750625 0  -0.25001874937525 -0.3437749968748749 0  -0.2500187493752501 0.1563250031251251 0  -0.5 -0.4375125 0  -0.5 0.06258749999999999 0  0.08904799960830578 -0.08015900599685086 0  0.4108334826406196 0.3444103681633853 0  -0.0625 -0.5 0  0.4414087098136942 0.2187640586098291 0  0.4382361660678968 0.150288432919798 0  -0.3125 0.0001 0  -0.3125 -0.0001 0  -0.3416336343815852 0.06187820768002609 0  -0.3125 -0.5 0  -0.3416336343815852 -0.4382217923199739 0  0.3168016282179152 0.1891009224226147 0  0.4368875345166075 -0.3446993355472595 0  -0.05975660640830217 -0.2683150418715617 0  0.3458703977041003 0.4362216268226822 0  0.5 0.0625 0  0.5 0.3125 0  0.5 -0.0625 0  0.5 -0.4375 0  0.4375 -0.5 0  -0.04197328552084911 -0.06329083152961786 0  0.2257906778195176 0.03586621568734723 0  0.2286857476565217 0.36951555023185 0  0.3548787707540964 -0.3727197121900284 0  -0.1790795964032311 0.4125871598709088 0  -0.0278086253378118 0.05696913583040467 0  -0.2640893654172825 -0.190631969293494 0  -0.1533594275423699 -0.440977335357388 0  0.5 0.4375 0  0.4375 0.5 0  0.1704903431553385 0.2986434949108457 0  0.08721475273820462 0.1287687476127682 0  0.1875 -0.5 0  -0.0625 0.5 0  -0.4375 0.5 0  -0.3125 0.5 0  0.0625 0.5 0  0.125 0.4359369935185367 0  0.3125 -0.5 0  0.1875 0.5 0  0.0625 -0.5 0  0.5 -0.3125 0  0.5 -0.1875 0  0.5 0.1875 0  0.3125 0.5 0  -0.5 -0.1875625 0  -0.5 -0.3125375 0  -0.5 0.1875625 0  -0.5 0.3125375 0  -0.5 0.4375125 0  -0.5 -0.06258749999999999 0  0.3624254104606854 -0.1274336378120225 0  0.1857642697873453 -0.01126882530927889 0  0.03669184495608396 0.2400031982312926 0  0.04068015303098439 0.3629261100764373 0  -0.3851162339112683 0.269026866774594 0  -0.3758332300807991 -0.1995452526923809 0  -0.446144648587372 -0.34378125 0  -0.446144648587372 0.15631875 0  0.3504998016039519 -0.02589861883840036 0  0.2836777321248879 0.07223256202683162 0  0.21875 -0.4466460035652602 0  0.1774501368185094 -0.3419431906700547 0  0.2592287652038449 -0.3368353496836486 0  -0.4486577479325732 0.09383124999999998 0  -0.40625 0.05134972627205531 0  -0.4486577479325732 -0.40626875 0  -0.40625 -0.4487502737279447 0  -0.07907884158578801 0.2127234227389962 0  0.2826672956396865 0.340725212476292 0  0.2552094419670018 0.2470909165729528 0  0.1235030570827048 -0.3722630563328095 0  -0.1765523267242401 -0.2196325740312749 0  -0.3653881707177284 -0.256399556620603 0  -0.3667881364584723 -0.08355066867835562 0  0.1448027058369495 -0.2589171712236736 0  0.2204190758351349 -0.1742931558527921 0  0.125595190811689 -0.1854735536931699 0  0.2751135960266025 -0.2821263988783404 0  0.04714559827497029 0.03095590907283807 0  -0.3694518448121097 0.4428768192088114 0  -0.4163493718954405 0.3665341424253254 0  0.2065677312659464 -0.0897482605048449 0  0.04596501084766122 -0.2039288085874983 0  -0.3678348759016452 -0.3352975447880205 0  -0.3331464162279717 -0.3812640910313448 0  -0.3678348759016452 0.1648024552119795 0  -0.3331464162279716 0.1188359089686553 0  0.006928352547084439 0.4089314103168539 0  -0.008754979675293741 -0.28865535545956 0  0.454824000777391 -0.03125 0  0.4453084397952883 -0.08555947234219879 0  0.0400389030608287 -0.3591593324500765 0  -0.3565047668221014 0.2214443888382642 0  -0.1767790649240408 0.276160039146296 0  -0.4407450517553578 0.2555055370068006 0  -0.4424041217249974 -0.2449977221857678 0  -0.0101841459589043 0.1278467808234489 0  0.1946666826231925 0.1831558471035277 0  0.1023041143695485 0.1885027832887665 0  0.1383943178482503 0.09688656085697314 0  0.1738321521953076 0.3687430643819201 0  0.09375 -0.4563154147117792 0  -0.2831024225358643 0.2351964925231401 0  -0.2621637468582121 -0.2899792135739121 0  -0.2423367266168128 0.3108531660207947 0  0.3858515397252176 -0.3293494555229365 0  -0.09921103529049136 0.4494480844437962 0  -0.1387217209722605 -0.3554699308920083 0  -0.06600083182100508 0.3836351847814501 0  0.1309954671830858 -0.1114321286398948 0  -0.09375 -0.04518048647049126 0  0.04208778762923838 -0.03517827620526504 0  -0.08165643227347709 0.05080163226699017 0  0.2987692351119484 -0.01319048554596328 0  -0.4136288823076366 -0.1379960981994732 0  -0.1856470434007142 -0.05707095126749213 0  -0.15625 0.4588983004055426 0  0.301492156088943 -0.3696020442065089 0  0.2261014656445051 -0.2255765688706129 0  -0.0254711816102797 0.3040308714413081 0  -0.2359814035109398 0.2051098885755096 0  -0.2142660728025848 -0.3074346058732286 0  -0.0444842016587006 -0.3987296650352232 0  -0.06299926340697812 -0.4476735265309565 0  0.2370119789310965 0.4463270361850639 0  0.1025408210352734 0.3898406831534957 0  0.02523186154102609 0.456121755814222 0  0.2703582881149408 -0.4522472093634566 0  0.34375 -0.460967211410693 0  0.1519529867048281 0.2096636028655708 0  -0.1028373102819492 0.3477334553616848 0  0.2543545123482477 -0.07525044338081299 0  0.4586232703312498 
[...]
<PointData  Scalars="f_184501"> 
<DataArray  type="Float64"  Name="f_184501"  format="ascii">1.7911502048266484e-06  2.2021337656044992e-04  1.3330306225615343e-01  5.6229091512982790e-02  1.1498543101146083e-03  3.8912285327304801e-07  6.3214231278737520e-01  6.3324062120720881e-01  1.2885366746183209e-02  1.9992441961367811e-02  2.6879083065804242e-02  1.0742526078599366e-03  1.3230640633615088e-03  1.1796324870726666e-03  4.3792676366640318e-02  2.9579970989744131e-02  4.8140142234791877e-02  3.6083676422666161e-02  4.6557996077026854e-02  4.9333002464765864e-03  5.7698556664962384e-03  4.2744777781817296e-02  2.4325066807460213e-03  5.6234956446504173e-04  5.9018357845757100e-04  3.4574143425910038e-02  3.8421996964883832e-02  4.7578253809731824e-02  2.8460807932398759e-04  2.5785412440161506e-04  4.4282652032769217e-02  4.7178717481536792e-02  8.2749649295204601e-05  3.4726106905730677e-04  5.5955711298800559e-02  3.7060124847943389e-02  4.7964922041725012e-02  2.8933133972364789e-02  4.2378370735378132e-02  1.5795123421365853e-02  2.8496273907611903e-03  1.8634128506645430e-02  2.2258121984761880e-04  1.4603674882357798e-02  1.8155778531003086e-03  3.0741159292500793e-03  3.0968016692180817e-03  2.9907789188608335e-04  3.2156698813903664e-02  1.2894944524909576e-04  1.4394968549441816e-04  1.0477237024498814e-04  8.1805284380510076e-04  5.1948767550734755e-04  4.1808007185029201e-02  7.4719984597043116e-03  4.8402639131585906e-02  4.3927409007990047e-02  6.2504220419078117e-03  6.0196934720009297e-05  3.4380144756328779e-02  2.0753796452875648e-02  5.2588936700301403e-02  4.8612111103736658e-02  1.2199644001195998e-04  1.0858820142214676e-03  1.4924738785449315e-02  3.5363045525867880e-02  2.3099343414124354e-02  3.5860013578190728e-02  4.9906651846272583e-02  4.6824706551449706e-02  5.1751537932845551e-02  5.4874644500371002e-02  2.1387063690778002e-02  4.0870080552438154e-02  2.8411128774656801e-02  4.8391842254402899e-02  7.3031590737476044e-04  7.2698558098968050e-04  3.7387999990100789e-04  3.0339426157766709e-04  3.8283899801920827e-04  1.0976713650747659e-03  3.3061210360399445e-04  1.8499389602772518e-04  3.9552251954305659e-02  3.5786399698202957e-02  7.6844567198164774e-03  4.5334034745741110e-02  4.0822314711021421e-02  5.4829344920927225e-02  4.5043208435209418e-02  2.0791451175684886e-02  7.1333156533586323e-02  4.6677865850451153e-02  4.5506652725453796e-02  4.5237699259346557e-02  7.2292056757032475e-03  4.3902227276210716e-02  1.4368415939298627e-04  2.0576791754297122e-04  1.8083313374756474e-04  4.0247710612293817e-04  3.9892977723849320e-04  2.6676536527122898e-04  4.9585508222425342e-02  3.3847876373596788e-04  2.1290851872404226e-05  1.6803749536008338e-05  4.1648382338865364e-02  3.1302550789600259e-02  4.5276303315010445e-02  7.0015519632244380e-02  4.0654889838028264e-02  7.4624579366659394e-02  3.5341431460186134e-03  8.2688723016467074e-04  3.2804927670492236e-02  1.6585343114666041e-04  2.6033067269262871e-03  7.6725950527508757e-03  1.5093581329408081e-02  4.6948397806348044e-04  4.8561466477853431e-03  3.9407200074545595e-02  2.6178114342168612e-02  2.5106598469021798e-02  1.4178957968346090e-02  2.3163769994916400e-02  5.3549647053401164e-02  1.1644487394016410e-02  4.7514559265137831e-03  4.9041927098569582e-02  9.2997295188609330e-03  1.0266777020089572e-02  2.8574886947022542e-04  3.0680301115231255e-04  4.1314324169404915e-04  1.4138618033566713e-03  3.5477898535913759e-02  1.1787664354210934e-03  7.1517950906219652e-02  1.0775614295302990e-02  3.6066426731904473e-02  4.4869425639676094e-02  4.6999734540139053e-02  3.8734659793046390e-02  1.0188203787330347e-03  1.9151284805333686e-03  2.1256975032487128e-03  4.0755569172614111e-03  3.3400477644750372e-03  4.9362642109865903e-04  2.5430475187640609e-03  1.1092935756839917e-03  1.8386589178822588e-04  2.6033448481575631e-04  1.6053879526541997e-05  7.1846633249363009e-02  4.7871656060549876e-02  9.3421430137617650e-03  4.1093596718725429e-02  3.7048777411040755e-02  4.4813873977211905e-04  5.0675143400780566e-04  3.2314790081528578e-04  1.4120680780136544e-03  7.9743951163460561e-04  4.4930912115303284e-02  4.9001807819031476e-02  1.1894908973449914e-02  4.7465024676675661e-02  2.8592549655819754e-02  4.8198502633175697e-02  2.7082993288529016e-02  7.1247722387624932e-02  6.5187641345534814e-02  2.1953873875571708e-02  4.0605958897269756e-02  4.4509843626232393e-02  4.8183928784540066e-02  3.6895724027844116e-03  4.0959367619673927e-02  2.3252712985966101e-04  4.6979854835314831e-03  5.5387603552841135e-02  5.2136957885294433e-02  4.4733382456732321e-02  6.1039388647772891e-02  2.5238628069029028e-02  1.3054355174619529e-02  4.8585960009132293e-04  2.2297382884659054e-04  2.7695427763107731e-02  3.5367663283121895e-02  3.4931467162107391e-02  4.0071038820358944e-02  1.6765552045087027e-02  4.1592728262346099e-02  3.2287642298091730e-02  3.7201739352723785e-02  4.6190326015618073e-02  3.4436220929690318e-04  6.4660354130014895e-04  3.0970768752599967e-04  8.8685906025503581e-04  1.2301946379487181e-03  1.9413729266230495e-05  3.9531248237947868e-02  4.2290437410367109e-02  3.4059666212461814e-02  2.7237058105125066e-02  2.3749168423247945e-04  2.4947158820435352e-04  3.1064016388726427e-04  2.3514282837682125e-04  3.6076166220462051e-02  4.0065561970003098e-02  2.9864248764919190e-02  3.6483517768498182e-02  4.3264421386038830e-02  1.1967892728353518e-04  1.2559146529072713e-04  3.6056160723007641e-04  5.7765919862756124e-04  1.1096687126133304e-02  4.6615113255731547e-02  4.8130563762310972e-02  2.8536352945354823e-02  1.7071003744544709e-03  1.4235290810438351e-04  3.1726791384984262e-04  4.2784076098128614e-02  5.0610168708701678e-02  5.1348450999930483e-02  4.7397497359446594e-02  1.3661450760924138e-01  5.8594140710328746e-05  2.8583601906068319e-04  4.7404175052134047e-02  3.7762890379582949e-02  1.9503103858497535e-04  4.8639810359455180e-04  3.5841478176631877e-04  3.8751836398564479e-04  2.1415072845093485e-02  1.8251073257724980e-02  2.9871551985393624e-02  3.1726266485842126e-02  2.0493587392108398e-02  2.7389893448155633e-04  2.5670331303517886e-03  3.7961147345411670e-04  3.0008399904835417e-04  3.7671453122068176e-02  5.0841236966195073e-02  5.1109806434663216e-02  5.7711867828781217e-02  4.1360837977196342e-02  1.9879544476733239e-02  2.0887007574272001e-04  5.8803818959823038e-04  8.6062980834072087e-04  4.8966535552168330e-02  9.4978701178053144e-03  4.8006129744277764e-03  1.2635240009923008e-02  5.9361711881878026e-02  2.5090747249439027e-03  1.3558579427463760e-01  4.4269422244622783e-03  3.7644925701385126e-02  2.7340940468994980e-04  5.5963556118173493e-04  5.2625275230507168e-03  4.3964615305819431e-02  4.9181736400082193e-02  1.8848607884274008e-02  3.3393718465028787e-04  1.4960254500838775e-03  1.0929880447370031e-02  9.2612423771835390e-03  4.3278299586932925e-02  3.4050612791057137e-02  2.3437156598402002e-02  3.3635224291916191e-02  4.1005388613647886e-02  5.0397362720398055e-02  8.7719262115573491e-03  4.2209631430661122e-02  3.2589233482337741e-02  3.8013189058625267e-02  3.9141644983180242e-02  2.9985809250227629e-02  1.7560210708793384e-03  5.7046598439345307e-04  1.7613017417128242e-03  2.0840971851758308e-04  4.1106036211896770e-02  4.4765657968979550e-02  4.6443609297283799e-02  1.0594775544450282e-04  5.8257021787320458e-02  5.4094462034876577e-02  4.1534358513683679e-02  2.9932365374127873e-02  4.6139596880209792e-02  1.6833647714948316e-02  3.5170458898927712e-02  4.3405581034753483e-02  2.7019147241652570e-02  4.9273165150539373e-02  3.8356242311167079e-05  5.0522303259845198e-02  4.5352380554425101e-02  7.3853897392583384e-02  8.1332444457348906e-04  5.0069166550526116e-02  5.2421730862644289e-02  5.0402921836936877e-02  4.7886981704496491e-02  1.9231610083332684e-03  6.7564170406475251e-03  1.1168480301200865e-03  2.7222893592769652e-04  4.8401855366149028e-02  1.6038782535394950e-04  3.9339038688602552e-04  3.2522072688961470e-05  1.2211177418543401e-02  1.1294572110931227e-04  4.6057851364089741e-02  4.2321081857150051e-03  4.7348794172031444e-02  2.2351713974345043e-03  4.6807257273285885e-02  4.5108925521816591e-02  1.1210914840253466e-02  5.4959236513075604e-04  4.8742302633316477e-02  5.5527751215426677e-02  3.7691316979004638e-04  3.2141566797012488e-04  2.0986889769976501e-02  3.0933971130358628e-02  6.8987199692728508e-04  5.2495103335436343e-03  9.5144098071278974e-04  6.0920369092192200e-04  3.0737724776971892e-04  3.8782446150925705e-03  4.6202614454782631e-02  1.6885564798528160e-04  2.7547038638202614e-04  6.7999187745034972e-03  7.6944609272831073e-04  3.0731336696679883e-04  2.7532319205985142e-03  2.1527835506653651e-04  6.4593325791151149e-04  6.1525130609432017e-04  6.2040947670791104e-04  2.9283833305686276e-04  3.7435090037091830e-04  1.0179349757249280e-04  4.7793374341452560e-02  3.7662360926499820e-02  3.0620462896975755e-02  4.4574338163881698e-02  4.0501616463954934e-02  6.0332421856166135e-02  4.1705496213945516e-02  2.4558141039270991e-02  3.4693123828790327e-02  4.1985513602366561e-02  4.7216239112480921e-02  2.1977322788344360e-04  4.7546225346761693e-02  1.1614884842025951e-01  8.7952052807506124e-03  1.2340830996713506e-02  8.5866195605680332e-04  7.1393045989030486e-04  3.8008145949032117e-02  3.4924045734918155e-02  6.4601829651961068e-02  3.8612985927489595e-02  2.0760750790826355e-04  3.1977640157161202e-02  2.6453902281744230e-02  3.8278604890847841e-02  3.3417208543034031e-02  4.7870164862021614e-02  4.9963646948474666e-03  9.8428391910945529e-04  3.3272551342504296e-04  8.5358427666429131e-05  3.6056000296220532e-02  4.6989632171591481e-02  4.7083263850857981e-02  4.3430707417302483e-02  3.3192588280101222e-02  4.2778031812916714e-02  2.5943456851516437e-02  3.8676614597811534e-02  3.8244992973165165e-02  5.1932443187342914e-02  1.4255655807960351e-04  7.0969711083247700e-04  9.7841016375925754e-04  1.5877816723786173e-02  2.0416186308515306e-04  4.0689015831322020e-02  1.1050441181338166e-02  1.2041734026864285e-02  4.6004642067996974e-02  7.3402852470013736e-03  3.5507992037702302e-02  1.4760165385853830e-03  3.6017774422259963e-03  4.5740114330494980e-04  1.6354674699311553e-02  4.3101034673889572e-02  3.3122425584130831e-02  1.9389877452247347e-02  3.7467237916658457e-03  6.0732229627686996e-05  2.0971623331230823e-04  3.7310403339302321e-02  5.2020885847556672e-03  1.4712202336672098e-01  2.3531731769906243e-02  2.2773476902077313e-02  1.3380837963192825e-02  2.0122218830076970e-04  3.2630598597416347e-04  5.4150145356004917e-02  2.0339345426666764e-04  1.4202473809247259e-03  4.1031020959028414e-02  5.8543107416245662e-05  1.0211225585279066e-03  1.0369682375107749e-04  1.1347125410697816e-03  4.2152063767239329e-04  4.4172265428937645e-02  1.7302586245807626e-02  4.2388518867408673e-02  5.6144624983232576e-02  3.5368809930593002e-04  4.9489744515628202e-02  4.7831628345419215e-02  4.7284671932644372e-02  2.4538601078670529e-04  3.8785091495319228e-04  2.0056217822125521e-04  3.9629819518118274e-02  4.6130670291961828e-02  4.2716594855343022e-02  3.9160875283718283e-02  1.6047340804614924e-02  2.6328446992751301e-03  5.6000791741656591e-02  1.3179561065697193e-03  4.7049958675391690e-02  6.4094967158402807e-02  6.3871465954662407e-02  5.2483311986173658e-03  2.0085656479090674e-02  3.6745083991315174e-02  1.9191170388724203e-02  4.6735893402250530e-04  4.8186526872877507e-02  1.7923010931186637e-04  3.4870760628294903e-02  3.1526563649090449e-02  8.3713711836002375e-02  4.7992335777554289e-02  5.2862128428909215e-02  4.9863083342967733e-02  5.2862996770080356e-02  3.2504577506885083e-03  2.9765810057908949e-02  5.6695783328317872e-02  1.9455486537789109e-02  6.6980781279917341e-03  3.6011540910075586e-02  4.4954013938570826e-02  2.2799754878515953e-02  1.0677913706253032e-02  2.8747730090885503e-02  2.2358991095961975e-04  8.4719617192625886e-04  4.5334018064801217e-02  4.8184589287415897e-02  2.4605902810274798e-03  2.3308449366379086e-04  3.1817047352269647e-04  1.2202328454047022e-02  6.8728484887369240e-02  8.7576575242594139e-03  1.7618905014263726e-02  4.7002878856372950e-02  3.6727652805467588e-02  2.8929961423002006e-04  8.9035248902800665e-02  1.7132811633618402e-03  1.3298252784821091e-03  3.8265774595850448e-02  3.9979805963303069e-02  4.7367623679587557e-02  2.8896076979422641e-04  1.2271518366842129e-03  3.2684419490140276e-04  3.5049846506523137e-04  5.3314113070072758e-04  3.1828641137336130e-04  1.2919441509286198e-04  8.6993535639558153e-02  3.8756220429607503e-02  4.5727127409564680e-02  4.4312739807198499e-02  1.4379666032608356e-02  3.4796727009339688e-02  4.6526164822239716e-02  6.0751700999975749e-03  1.5271947602178803e-02  7.7150792411339209e-02  4.6149324953874910e-03  5.0352844156467671e-03  1.8051611412464905e-04  2.5733994565564221e-04  7.7900326300398015e-04  5.6248526193442342e-04  4.2245292725697575e-02  1.8560350812395462e-04  4.6523562645119872e-02  4.8439113949630692e-02  4.8444737422369863e-02  4.4996299973196138e-02  4.7367071398605159e-02  4.3611653718551247e-02  4.7161519740116821e-02  5.0767774370900236e-02  4.4995232945592795e-02  4.2169049384106407e-02  3.8473063184486414e-02  4.6247658669383546e-02  2.8003273319924554e-02  1.8896048613557500e-04  1.4663557297362982e-03  1.5501967588624544e-03  9.6260551231722418e-04  5.4335566425082769e-02  5.7955426462569671e-04  1.0630357284413651e-03  3.9938022720835458e-04  9.0189042492521039e-04  2.7211493290700962e-04  1.8346986267049094e-03  3.7683991364082067e-03  3.1212897873393259e-03  5.0807758634769246e-03  2.5948247287460482e-03  4.9350078355701398e-02  1.7300361798640652e-03  1.4583307383281219e-02  4.9004799130242971e-02  7.4313513222977034e-03  3.0364827354586680e-02  3.0304644806025457e-03  4.4614409868702957e-02  1.0783078084247149e-03  2.4985015695438132e-04  2.8713120218706590e-04  3.8592331107253394e-02  5.6695820877459956e-03  3.4916733706612940e-02  6.1276328991812894e-02  6.3428421739051111e-02  1.1358158552912554e-02  4.0368440191366650e-02  3.4794653514869171e-04  1.1888011616457252e-03  4.3415981303071118e-03  4.2785673194314774e-03  4.8622897938368340e-02  1.3173407594466204e-02  4.4169784368624843e-02  3.0063140738242802e-02  3.1735531417459606e-02  5.3978480547745837e-02  4.8551472430265995e-02  5.3825155195880062e-02  6.3695210070387094e-03  1.9026355235599740e-04  3.2525761562369701e-04  2.9258702992748223e-04  3.6680480476648215e-02  3.3997360132326342e-02  4.8055577517439912e-02  2.2881257189725009e-02  4.1446664889255518e-02  1.3300824188722450e-02  4.6059221452395854e-02  4.2409185937699462e-02  3.0544016235347013e-02  7.7134475832963609e-03  1.8958065575709532e-02  3.4708467818141485e-02  4.0024075957300925e-02  4.2432727850613250e-02  4.3529178375816914e-02  1.6928868696925441e-02  2.3676631313942317e-01  1.8391675754697533e-03  7.4596217408991693e-04  8.0909245785721197e-04  8.2475495905522719e-03  1.8550995896010844e-04  4.3577216024889814e-02  2.4545618140819042e-02  7.8311350435627104e-04  3.9476056669352909e-04  2.3929020661810294e-04  6.7705360723905261e-02  5.3774874549846460e-02  5.8991710552401329e-02  6.4184441488885193e-04  4.4604669538512889e-04  4.5868791264649808e-04  4.3035528629552374e-04  5.5314055996525720e-03  4.4175197511057855e-02  3.9826088115527562e-02  4.2324185237890881e-02  9.3486444381891487e-04  4.6467682431781454e-02  2.3926412571116211e-03  4.5191707083709495e-02  4.3346989741113374e-02  3.4166705083049871e-02  3.1680379363779065e-03  6.0396737076054204e-02  3.7418751760021116e-02  2.2224349882590177e-03  5.3659160498181667e-06  5.5648061933710118e-06  4.0244188578849454e-06  3.4111711808085092e-04  2.2589149562910514e-03  3.2750394303267223e-04  1.9007379765654937e-04  3.9259252708403994e-06  1.5836318846743507e-02  9.1596069302887967e-02  1.1336284011514282e-01  4.2179369541363247e-02  6.7958015749593865e-04  2.5913597538191030e-02  3.8325998050894358e-02  3.2450391288960018e-02  3.4085337492299014e-02  4.7028246096227910e-02  4.6114910721336798e-02  5.0633810389200548e-02  4.7604095248884759e-02  2.4058277969131958e-02  4.7110737394973387e-02  3.7625120612650095e-02  3.3699824314706382e-02  5.3153253724800198e-04  2.4372955140050615e-03  5.2496549282721617e-03  2.7293431564560820e-03  2.4393735333529164e-03  1.4910690123004311e-03  5.5428552760695617e-02  1.4699373081556492e-02  2.1481562288320816e-04  2.3423359610499694e-04  3.4855324077502609e-04  5.1258943290789657e-02  2.3323785707568995e-04  1.7868238422204282e-04  3.0421426212708677e-04  2.2854482860190799e-02  2.9367221362045507e-02  2.8994580713054097e-02  1.8051093944046798e-04  4.5737499103893083e-02  4.6737231952558170e-05  6.3882109372900460e-03  3.1245270892050387e-02  1.5704806256811125e-04  3.6300768622513882e-04  4.7502544569181689e-02  3.4532144638855587e-02  3.1189668164573584e-02  3.7612428259014730e-02  4.3540349310989488e-04  6.0127009471616969e-04  5.0522203995674593e-02  5.0191427348105687e-02  4.5467535964005289e-02  3.8511968403842647e-02  5.1238490174480643e-02  5.5410412188840470e-02  5.5730986768400331e-05  5.4495589451535345e-05  2.7470989902864045e-02  3.0199802780812971e-02  3.9098523693442980e-02  2.3936086892660177e-02  5.1142803157123821e-03  1.0041086167015692e-02  1.8794848891904695e-02  2.6694747142310911e-02  6.4395994939679755e-04  2.7266151293897749e-02  2.2626981034987992e-04  1.4828707354929360e-02  4.5033733028791462e-02  1.1999623557096965e-03  5.0682528387060234e-05  2.2072425292898895e-04  4.6287590811072055e-05  1.8941789149144254e-04  3.9410272066566003e-04  6.1469894414215964e-04  9.8896312437018259e-04  1.0848963538570920e-03  1.1440643443492890e-02  4.6441282805460546e-02  4.8215953164442322e-04  2.4849458149488678e-04  3.9919102506571560e-02  4.5303999268159076e-02  3.5118779582801919e-04  3.7393879396325493e-04  4.7957516886785654e-04  3.1545213665649236e-04  3.2614341584078770e-02  2.7096731253760737e-02  3.7606889086164823e-02  3.8323581578525882e-02  5.3089484701854914e-02  3.2333435327327430e-02  2.9790470170008777e-02  4.7607467357540061e-02  3.9347089982144277e-02  3.8033033876880944e-02  1.8305349707195020e-02  4.2256279536782099e-02  2.7171028874346363e-02  3.3049024620475813e-02  5.9123476832446224e-03  4.1268873748710480e-02  2.7284467539187732e-03  3.6418180369944105e-02  1.0267733214924095e-02  4.6867190490033850e-02  3.0875188853356266e-04  3.6557619060919942e-02  5.5541506128256646e-02  5.0692711859940370e-02  1.1264666776775831e-02  8.3649609636111573e-03  2.1803590206007694e-04  2.5632795288558482e-04  5.0385573208238110e-02  4.1114771411009027e-02  4.2453052720611277e-02  4.1186163933759260e-04  5.2994221575301752e-02  4.6606504831664758e-02  3.7511410308731265e-02  3.1968347596847109e-04  2.6397151515269855e-04  4.5357231680328035e-04  1.9824094426869543e-04  4.4682433245873151e-04  9.6209974575855401e-05  3.6701051904052838e-02  4.0508659159049255e-02  3.4800463905381510e-02  4.6972524467257692e-05  3.3971258514361308e-04  5.2251251335228043e-04  4.7613203080197589e-05  1.6949419621290892e-04  1.4571720425616134e-04  5.3457198163892938e-02  1.2335895622937500e-03  1.4420341539739351e-04  3.3691551057696262e-04  3.1715880756080290e-04  2.1838616569290318e-04  4.7563091263337680e-02  4.8314257476430589e-02  4.7398252335368429e-02  3.0706477555537823e-02  2.6802202380147837e-02  4.6895383508784277e-02  6.8375797615967242e-04  9.9488474953635490e-03  7.2755879831231654e-04  3.5571313337508778e-02  2.8840920553458476e-02  9.8330607124625831e-03  4.6646623323830953e-02  1.5921023660061845e-02  7.7836089211643662e-03  4.5032730511690378e-02  3.7874994663968681e-02  3.0393769959045794e-04  2.4786007997784182e-04  4.7304983306176142e-02  1.5707951977240581e-03  5.3262506489584294e-04  4.6694397269915269e-02  4.8983452258148298e-02  4.6396385126160240e-02  3.9787055696684080e-02  1.1205352795812681e-04  4.6889884606320313e-02  3.4709609158457146e-02  2.6770038046687861e-02  2.126876624