<?xml version="1.0"?>
<VTKFile type="UnstructuredGrid"  version="0.1"  >
<UnstructuredGrid>
<Piece  NumberOfPoints="1515" NumberOfCells="2858">
<Points>
<DataArray  type="Float64"  NumberOfComponents="3"  format="ascii">-0.5 -0.0001 0  -0.5 -0.5 0  0.5 -0.5 0  0.5 0.5 0  -0.5 0.5 0  -0.5 0.0001 0  0 0.0001 0  0 -0.0001 0  0 -0.5 0  0 0.5 0  0.5 0 0  -0.25 0.0001 0  -0.25 0.5 0  -0.25 -0.0001 0  0.25 0.5 0  0.25 -0.5 0  0.2500374937493749 0.1875187468746875 0  0.5 -0.25 0  0.25002499 -0.125 0  -0.125 -0.25005 0  -0.125 0.25005 0  0.5 0.25 0  -0.25 -0.5 0  -0.5 -0.25005 0  -0.5 0.25005 0  0.125 -0.3124916691673332 0  0.125 0.3437443727884549 0  0.3187498332767468 -0.3187498332767468 0  -0.3125 -0.3125124974994999 0  -0.3125 0.1875875025005001 0  0.04436566007004419 0.1785185187387698 0  0.3437706224620182 0.3437706224620182 0  -0.359407810625422 0.3594296915637348 0  -0.359407810625422 -0.1406703084362652 0  0.08209948494863104 -0.1484533219292508 0  0.3281296842191969 0.03125624875007487 0  0.1612337437527647 0.0454945319044936 0  0.5 -0.125 0  0.3736573308633327 -0.1902100573489204 0  -0.05632383965282133 -0.1281636979131719 0  -0.1875249975 -0.37501249874975 0  -0.02161822989173764 0.354580025951059 0  -0.2160757009003203 -0.1393657085918785 0  -0.01783801249259284 -0.3526895391541273 0  -0.2160757009003203 0.3607342914081215 0  -0.125 0.0001 0  -0.125 -0.0001 0  -0.1875249975 0.1250875012502501 0  0.5 0.125 0  -0.375 0.0001 0  -0.375 -0.0001 0  -0.5 0.125075 0  -0.375 -0.5 0  -0.5 -0.375025 0  0.3828324180271084 0.1875 0  -0.125 0.5 0  0.5 -0.375 0  0.375 -0.5 0  -0.125 -0.5 0  -0.375 0.5 0  0.125 0.5 0  0.125 -0.5 0  0.5 0.375 0  0.375 0.5 0  -0.5 -0.125075 0  -0.5 0.375025 0  -0.06200365993838185 0.1102431244359298 0  0.3921286730834987 -0.07100003899567721 0  -0.001178265146973292 -0.2342725669761844 0  0.219639755882476 -0.3848202826230195 0  0.1764909845376315 -0.2113963654501196 0  0.2343901841136658 0.3031458088961128 0  0.1561195030924493 -0.06553680147678266 0  0.1485501800845649 0.1522005597879607 0  0.07430925316253632 -0.4062458345836666 0  0.1875 0.4218721863942274 0  0.0625 0.4218721863942275 0  0.2776974776570886 -0.2252166395728846 0  -0.2310132101974821 0.2556304703469177 0  -0.2310132101974821 -0.2444695296530824 0  -0.3906265628125469 -0.3906296862497968 0  -0.3906265628125469 0.1094703137502032 0  -0.2812687506255001 0.09383750062512503 0  -0.2812687506255002 -0.406262499374875 0  -0.4101472686723712 0.2071199254696213 0  -0.4101472686723712 -0.2929800745303787 0  0.2470275540227946 -0.02585328932041452 0  0.4068247800249947 0.09140209453477602 0  -0.1176406316218027 0.3957739114529177 0  0.4080574838155757 -0.2809016730332933 0  0.3125 -0.4219344228213859 0  0.4088486496673779 -0.4088486496673779 0  0.1167033063099591 0.2455046542815969 0  -0.02381261413756171 0.2533622281544139 0  0.02735543470987723 0.08802303626707711 0  0.3144655814479235 0.2551097933485553 0  0.2801337679615206 0.4118308473117793 0  0.4101587089138863 0.2773478512831281 0  -0.09689860681079282 -0.4078094624324944 0  0.213976519574722 -0.2941495474331945 0  -0.318965898965983 0.2781458178971435 0  -0.3125 0.4357826538464097 0  -0.318965898965983 -0.2219541821028565 0  -0.3125 -0.06431734615359029 0  -0.4357704230694522 0.3125375 0  -0.4357704230694522 -0.1875625 0  0.4114732283419867 0.4114732283419867 0  -0.4234646583494089 0.4234743507195528 0  -0.4375 -0.0001 0  -0.4375 0.0001 0  0.3164258563077259 0.1230517971377134 0  0.04931026741366369 0.300666438050672 0  0.2304865209107167 0.1009680687096636 0  0.02061587644269779 -0.08558486663800556 0  0.09390691211100699 -0.2329943594667239 0  0.08896107880644889 -0.006809950500825342 0  -0.1875 0.5 0  -0.1392552316473008 -0.09019077220175532 0  0.4170297537744737 0.008612617817243748 0  -0.4243694331702185 -0.08478222235936261 0  -0.1416933693607303 -0.1709733993077484 0  -0.09511425322415427 -0.3261090638251909 0  -0.04508670308176045 0.4323857419859515 0  -0.4375 -0.5 0  -0.1187189609291948 0.1687838380963837 0  0.3117722643778845 -0.07351457101062323 0  0.1513445599038777 -0.4251753449096755 0  0.04472177709904164 -0.3011105058468416 0  0.001740722226491711 -0.4250539693950984 0  -0.03075788851996441 0.178560406845558 0  0.1766313586052732 -0.1370243862559475 0  -0.0761550533906552 0.3051296889632589 0  -0.1485469487091727 0.3268133048125818 0  0.1930083860569673 0.2386735170085497 0  -0.0625 -0.0001 0  -0.0625 0.0001 0  -0.2878141094770303 -0.1320687430427478 0  -0.2875995151119595 0.3444544772933048 0  -0.24076159142329 -0.07161431170272106 0  -0.24076159142329 0.428485688297279 0  0.4263700347703773 -0.1373417231816959 0  -0.1856875708107399 0.19821478019016 0  0.09322297310683496 0.06338537237428626 0  -0.07466041728962823 -0.1981228067401687 0  0.009513123991135172 -0.1613319531958586 0  0.3092144166352111 -0.1625850961304104 0  0.3437404121717113 -0.2534277690952264 0  0.4379744025071972 -0.2176839612869874 0  -0.1297061011176702 0.07587858854060507 0  -0.1875 0.0001 0  -0.1875 -0.0001 0  -0.1875 -0.5 0  -0.1633110600051376 -0.3090045011162743 0  -0.21877499875025 0.06259999875025002 0  -0.21875 -0.4375124968750625 0  -0.25001874937525 -0.3437749968748749 0  -0.2500187493752501 0.1563250031251251 0  -0.5 -0.4375125 0  -0.5 0.06258749999999999 0  0.08904799960830578 -0.08015900599685086 0  0.4108334826406196 0.3444103681633853 0  -0.0625 -0.5 0  0.4414087098136942 0.2187640586098291 0  0.4382361660678968 0.150288432919798 0  -0.3125 0.0001 0  -0.3125 -0.0001 0  -0.3416336343815852 0.06187820768002609 0  -0.3125 -0.5 0  -0.3416336343815852 -0.4382217923199739 0  0.3168016282179152 0.1891009224226147 0  0.4368875345166075 -0.3446993355472595 0  -0.05975660640830217 -0.2683150418715617 0  0.3458703977041003 0.4362216268226822 0  0.5 0.0625 0  0.5 0.3125 0  0.5 -0.0625 0  0.5 -0.4375 0  0.4375 -0.5 0  -0.04197328552084911 -0.06329083152961786 0  0.2257906778195176 0.03586621568734723 0  0.2286857476565217 0.36951555023185 0  0.3548787707540964 -0.3727197121900284 0  -0.1790795964032311 0.4125871598709088 0  -0.0278086253378118 0.05696913583040467 0  -0.2640893654172825 -0.190631969293494 0  -0.1533594275423699 -0.440977335357388 0  0.5 0.4375 0  0.4375 0.5 0  0.1704903431553385 0.2986434949108457 0  0.08721475273820462 0.1287687476127682 0  0.1875 -0.5 0  -0.0625 0.5 0  -0.4375 0.5 0  -0.3125 0.5 0  0.0625 0.5 0  0.125 0.4359369935185367 0  0.3125 -0.5 0  0.1875 0.5 0  0.0625 -0.5 0  0.5 -0.3125 0  0.5 -0.1875 0  0.5 0.1875 0  0.3125 0.5 0  -0.5 -0.1875625 0  -0.5 -0.3125375 0  -0.5 0.1875625 0  -0.5 0.3125375 0  -0.5 0.4375125 0  -0.5 -0.06258749999999999 0  0.3624254104606854 -0.1274336378120225 0  0.1857642697873453 -0.01126882530927889 0  0.03669184495608396 0.2400031982312926 0  0.04068015303098439 0.3629261100764373 0  -0.3851162339112683 0.269026866774594 0  -0.3758332300807991 -0.1995452526923809 0  -0.446144648587372 -0.34378125 0  -0.446144648587372 0.15631875 0  0.3504998016039519 -0.02589861883840036 0  0.2836777321248879 0.07223256202683162 0  0.21875 -0.4466460035652602 0  0.1774501368185094 -0.3419431906700547 0  0.2592287652038449 -0.3368353496836486 0  -0.4486577479325732 0.09383124999999998 0  -0.40625 0.05134972627205531 0  -0.4486577479325732 -0.40626875 0  -0.40625 -0.4487502737279447 0  -0.07907884158578801 0.2127234227389962 0  0.2826672956396865 0.340725212476292 0  0.2552094419670018 0.2470909165729528 0  0.1235030570827048 -0.3722630563328095 0  -0.1765523267242401 -0.2196325740312749 0  -0.3653881707177284 -0.256399556620603 0  -0.3667881364584723 -0.08355066867835562 0  0.1448027058369495 -0.2589171712236736 0  0.2204190758351349 -0.1742931558527921 0  0.125595190811689 -0.1854735536931699 0  0.2751135960266025 -0.2821263988783404 0  0.04714559827497029 0.03095590907283807 0  -0.3694518448121097 0.4428768192088114 0  -0.4163493718954405 0.3665341424253254 0  0.2065677312659464 -0.0897482605048449 0  0.04596501084766122 -0.2039288085874983 0  -0.3678348759016452 -0.3352975447880205 0  -0.3331464162279717 -0.3812640910313448 0  -0.3678348759016452 0.1648024552119795 0  -0.3331464162279716 0.1188359089686553 0  0.006928352547084439 0.4089314103168539 0  -0.008754979675293741 -0.28865535545956 0  0.454824000777391 -0.03125 0  0.4453084397952883 -0.08555947234219879 0  0.0400389030608287 -0.3591593324500765 0  -0.3565047668221014 0.2214443888382642 0  -0.1767790649240408 0.276160039146296 0  -0.4407450517553578 0.2555055370068006 0  -0.4424041217249974 -0.2449977221857678 0  -0.0101841459589043 0.1278467808234489 0  0.1946666826231925 0.1831558471035277 0  0.1023041143695485 0.1885027832887665 0  0.1383943178482503 0.09688656085697314 0  0.1738321521953076 0.3687430643819201 0  0.09375 -0.4563154147117792 0  -0.2831024225358643 0.2351964925231401 0  -0.2621637468582121 -0.2899792135739121 0  -0.2423367266168128 0.3108531660207947 0  0.3858515397252176 -0.3293494555229365 0  -0.09921103529049136 0.4494480844437962 0  -0.1387217209722605 -0.3554699308920083 0  -0.06600083182100508 0.3836351847814501 0  0.1309954671830858 -0.1114321286398948 0  -0.09375 -0.04518048647049126 0  0.04208778762923838 -0.03517827620526504 0  -0.08165643227347709 0.05080163226699017 0  0.2987692351119484 -0.01319048554596328 0  -0.4136288823076366 -0.1379960981994732 0  -0.1856470434007142 -0.05707095126749213 0  -0.15625 0.4588983004055426 0  0.301492156088943 -0.3696020442065089 0  0.2261014656445051 -0.2255765688706129 0  -0.0254711816102797 0.3040308714413081 0  -0.2359814035109398 0.2051098885755096 0  -0.2142660728025848 -0.3074346058732286 0  -0.0444842016587006 -0.3987296650352232 0  -0.06299926340697812 -0.4476735265309565 0  0.2370119789310965 0.4463270361850639 0  0.1025408210352734 0.3898406831534957 0  0.02523186154102609 0.456121755814222 0  0.2703582881149408 -0.4522472093634566 0  0.34375 -0.460967211410693 0  0.1519529867048281 0.2096636028655708 0  -0.1028373102819492 0.3477334553616848 0  0.2543545123482477 -0.07525044338081299 0  0.4586232703312498 
[...]
<PointData  Scalars="f_184501"> 
<DataArray  type="Float64"  Name="f_184501"  format="ascii">1.7888286777703846e-06  2.2774406395757480e-04  1.3017959070956259e-01  5.4837402757793585e-02  1.1206942601470423e-03  3.8798752653438128e-07  5.6120991733543535e-01  5.6236118185049744e-01  1.2766122481504470e-02  1.9862793369987822e-02  2.6368972213052642e-02  1.0617717100459762e-03  1.3425798458063412e-03  1.1704107390538262e-03  4.2968122183599959e-02  2.9042209688551306e-02  4.6950059566879594e-02  3.5232205481749837e-02  4.5334087181424579e-02  4.9970259411167700e-03  5.8424484996120367e-03  4.1754358611870226e-02  2.4424487445827876e-03  5.5563153886332062e-04  5.8036450555859899e-04  3.4040169017620490e-02  3.7855872308131470e-02  4.6498695323718885e-02  2.8974583889295044e-04  2.4697651801593287e-04  4.3821559042499313e-02  4.6118329730149593e-02  7.8308842788135297e-05  3.3971202877351698e-04  5.4888108671977395e-02  3.6236089432366711e-02  4.6453408872054500e-02  2.8325688849951208e-02  4.1380781679138924e-02  1.6155993045630271e-02  2.8691745478539601e-03  1.8558374099813504e-02  2.2572012030767192e-04  1.4533867356361590e-02  1.8409108861198111e-03  3.0410564125313614e-03  3.0662551294277926e-03  3.1149452666421571e-04  3.1496600098765405e-02  1.2801231394767921e-04  1.4338494492013368e-04  1.0383364562897999e-04  8.2680187063996784e-04  5.0753399723691545e-04  4.0839444959216258e-02  7.4839265282986133e-03  4.7269056196604015e-02  4.2977357284930608e-02  6.2305280380828207e-03  5.6657741296409914e-05  3.3917703546759791e-02  2.0457859898355704e-02  5.1300335596427639e-02  4.7519878372692205e-02  1.2143528169965226e-04  1.0613728947825099e-03  1.5358653594284599e-02  3.4590703068074651e-02  2.3045825053792150e-02  3.5187752176824440e-02  4.8761656013526528e-02  4.5845203994766298e-02  5.0085284977835626e-02  5.3470516740225967e-02  2.1136119070696562e-02  4.0183889998194264e-02  2.8119728817739886e-02  4.7220859046594447e-02  7.4726082284748256e-04  7.4275501918323291e-04  3.7611691307092314e-04  2.9781957905186527e-04  3.7056643005164145e-04  1.1109122255861705e-03  3.2159169946353617e-04  1.7995729958592753e-04  3.8583668701509255e-02  3.5010158469251873e-02  7.7048260740930187e-03  4.4279428482986972e-02  3.9968548563635534e-02  5.3580103813069796e-02  4.4277227722441317e-02  2.0781471782210851e-02  7.0810020543427873e-02  4.5590455632485656e-02  4.4586038355837021e-02  4.4181966218442330e-02  7.2194743278015472e-03  4.2995429646178321e-02  1.3950195052271584e-04  2.1291824173129675e-04  1.7604871083554019e-04  3.9601842365149874e-04  3.8731820010458844e-04  2.6203571122149509e-04  4.8428081727816416e-02  3.2604608468637751e-04  2.1260636448805363e-05  1.6739186641569282e-05  4.0652854472410280e-02  3.1002098427707542e-02  4.4075471467041959e-02  6.9853414248629134e-02  4.0051851435546522e-02  7.0417618750365521e-02  3.5586409239711731e-03  8.6591401713723777e-04  3.2122905612619046e-02  1.6433129523176534e-04  2.6784627276308873e-03  7.6941170264079118e-03  1.5040298431075462e-02  4.7504632729723594e-04  4.9721947578261145e-03  3.8482911504535824e-02  2.5778129593981930e-02  2.4883511414665136e-02  1.4068319366647281e-02  2.3307180082747792e-02  5.2066109667868461e-02  1.1672177304051946e-02  4.7924943060131779e-03  4.7966528280863625e-02  9.1407427101223172e-03  1.0037451948635713e-02  2.7623553102126581e-04  3.1399001636120823e-04  4.0143071164448876e-04  1.4339801526855945e-03  3.4688578930018955e-02  1.2135452127716468e-03  6.8818139454426053e-02  1.0906576387927188e-02  3.6055721971664123e-02  4.3765996021516804e-02  4.5889847847187963e-02  3.7842334452872398e-02  1.0663561535474862e-03  1.8892241709117647e-03  2.1062504237280826e-03  4.0757037818028186e-03  3.3743871848110688e-03  4.7840399838107130e-04  2.5552861177285985e-03  1.1257462606873963e-03  1.7776213711615511e-04  2.5347684164848863e-04  1.5977966334069166e-05  6.9432629187043834e-02  4.6753501640036936e-02  9.2817786881032975e-03  4.0155908068788715e-02  3.6234486227715627e-02  4.4375272384272740e-04  5.0377225379960491e-04  3.1758933351996291e-04  1.4233988725157131e-03  8.0707511415784765e-04  4.3850777812439540e-02  4.7868689398280595e-02  1.1930017284182340e-02  4.6426336423010674e-02  2.8039304288734621e-02  4.7040098210144335e-02  2.6551784098706420e-02  6.9610817254779606e-02  6.3660985076448351e-02  2.2809350047704464e-02  3.9564983962666431e-02  4.3660505022300185e-02  4.7103158430470790e-02  3.7170997313645238e-03  4.2454162566324040e-02  2.3117296638432445e-04  4.6990930690421753e-03  5.4018776403043860e-02  5.0891295316682454e-02  4.3908162243564093e-02  5.9660766662181855e-02  2.4825484364311298e-02  1.3019092373640628e-02  4.6987414927336738e-04  2.3093577625830748e-04  2.7411717442944832e-02  3.4879189137106054e-02  3.4237133131797888e-02  3.9409962409551622e-02  1.6565323423270724e-02  4.0599972063064864e-02  3.1560223321936316e-02  3.6384044459502260e-02  4.5231649982610214e-02  3.4162183564601166e-04  6.3605208447142607e-04  3.0570978182736086e-04  8.6920775836796000e-04  1.2004804623207046e-03  1.9374624605454934e-05  3.8614759234538734e-02  4.1089843392110074e-02  3.3776250775000884e-02  2.6992791199457796e-02  2.2760498669022278e-04  2.4212814853795655e-04  3.0400705891462070e-04  2.3099557571063461e-04  3.5287356297954139e-02  3.9106902232655581e-02  2.9336875111352703e-02  3.5834293468330260e-02  4.2352339124384610e-02  1.1822734793124079e-04  1.2415438467981929e-04  3.5606722515519766e-04  5.8228213668375724e-04  1.1216630972990634e-02  4.5621445634879826e-02  4.7023457235947391e-02  2.8121223668440453e-02  1.7468187129468873e-03  1.3757279996099987e-04  3.1298987446068199e-04  4.1994605020817595e-02  4.9303858904836580e-02  5.0251672784508490e-02  4.6316161806661454e-02  1.2798946778957013e-01  5.5565811571049073e-05  2.7495488581428715e-04  4.6067005981137041e-02  3.7418641085777457e-02  1.9564502587511524e-04  4.9434841560412146e-04  3.4829790056495439e-04  3.7701297393070082e-04  2.1270857167362371e-02  1.8189692462128600e-02  2.9269727987713320e-02  3.1057304272841389e-02  2.0307940638969037e-02  2.6291314149937383e-04  2.6081661412956317e-03  3.6997922873660690e-04  2.9415528352444540e-04  3.7980880326160031e-02  4.9587434859766570e-02  5.0156953956597354e-02  5.5936990904675153e-02  4.0663965810533304e-02  1.9623369834218564e-02  2.0606704631650038e-04  5.9955932869587623e-04  8.7737986953070879e-04  4.7838118203525355e-02  9.4984937877395578e-03  4.8227875353642688e-03  1.2621407318041535e-02  5.7612895762990897e-02  2.5864973055752223e-03  1.2790047309710326e-01  4.6685771391440974e-03  3.6789714571445732e-02  2.6929558591754605e-04  5.4335536079007840e-04  5.2849680379234727e-03  4.3017973728613941e-02  4.8013971840361706e-02  1.8800819846290527e-02  3.4052039634169110e-04  1.5183955442315885e-03  1.0882373268561459e-02  9.2134966225652249e-03  4.2478744514515290e-02  3.3613080496534081e-02  2.3247267946720124e-02  3.2990047229212477e-02  4.0141284405083286e-02  4.9312374139870524e-02  8.7974616064923575e-03  4.1138323481591951e-02  3.1915143189594750e-02  3.7156501958919723e-02  3.8254913905070624e-02  2.9388569449303511e-02  1.7685313706840356e-03  5.5925291294369470e-04  1.7780126973772792e-03  1.9839906922192321e-04  4.0464759999376501e-02  4.3718451617519409e-02  4.5370845621456879e-02  1.0528221549773675e-04  5.6921641330809555e-02  5.2869960523577626e-02  4.0560484325936487e-02  2.9670151030978736e-02  4.5025441577274276e-02  1.6653879279502962e-02  3.4415481754747637e-02  4.2390726441845154e-02  2.6686787619087771e-02  4.7507199508047042e-02  3.8208915867880143e-05  4.9160530889293404e-02  4.4286103067868725e-02  7.2138091965888509e-02  8.2906915978528904e-04  4.8905365164483815e-02  5.1158631903795306e-02  4.9196138312687293e-02  4.6806935240523248e-02  1.9561006128321350e-03  6.9229125225932237e-03  1.0928235552688627e-03  2.6379183629185731e-04  4.7247831506489403e-02  1.6484868428005356e-04  3.9340218640096221e-04  3.2286594474633476e-05  1.2202641186511414e-02  1.0657884208600091e-04  4.5108297834127176e-02  4.3804083981120777e-03  4.6292249418215053e-02  2.2666913270193729e-03  4.5798917755925594e-02  4.3992269238795186e-02  1.1272590463660449e-02  5.6380447191922993e-04  4.7325751519513098e-02  5.4911850725839921e-02  3.6948280758710339e-04  3.1527033155035258e-04  2.1091968271734287e-02  3.0833030360903756e-02  7.2071099985372114e-04  5.4496532137419465e-03  9.3405554723620875e-04  6.2001599477810236e-04  2.9540958893109801e-04  3.9105338814150094e-03  4.5223971939293665e-02  1.6866916454584487e-04  2.7863715388867528e-04  6.7808417576938271e-03  7.4913927421154237e-04  3.0370231207606566e-04  2.7777310987722559e-03  2.1308042610908011e-04  6.2950627204684409e-04  6.2893711590303184e-04  6.1351735542490365e-04  2.9031991264313385e-04  3.6627497780516348e-04  9.5726435454699573e-05  4.6576645661645114e-02  3.7093475413745323e-02  3.0266106427159184e-02  4.3732128371403098e-02  3.9748243118603178e-02  5.7963565665194672e-02  4.0701930505542085e-02  2.4396972271402577e-02  3.3914070371837503e-02  4.0997685362453212e-02  4.6174194291808829e-02  2.1011523830554698e-04  4.6313629396426775e-02  1.1617447035925163e-01  8.7884161682305461e-03  1.2538477121803561e-02  8.3522040453326975e-04  6.9364280918627241e-04  3.7251494813920559e-02  3.5615602736494702e-02  6.3532845328074003e-02  3.7705859124920561e-02  2.0201924198379878e-04  3.1437891690081841e-02  2.6300170985000669e-02  3.7802744684106319e-02  3.3023954975556997e-02  4.6758158277003734e-02  5.0055783202180813e-03  9.7026966770487420e-04  3.3835684166633168e-04  8.4826650377166501e-05  3.5531696226787458e-02  4.5929780737664384e-02  4.5959402294331334e-02  4.2344698614653245e-02  3.2493958141759677e-02  4.2225960059603156e-02  2.5524241083667534e-02  3.7790413676555036e-02  3.7662804468055436e-02  5.0744581520562666e-02  1.4196665180358419e-04  6.9660325319486000e-04  1.0103848530003015e-03  1.5938568962200847e-02  1.9504067176100482e-04  3.9885075775257878e-02  1.0964094508427249e-02  1.1944544333707020e-02  4.5287250476181276e-02  7.3881330709455236e-03  3.4742206191340642e-02  1.5276562301405213e-03  3.6757766887906057e-03  4.5288154799941703e-04  1.6279275877303656e-02  4.1917780345219945e-02  3.2431622486197430e-02  1.9259082878596626e-02  3.8196744957703899e-03  6.3114152484821962e-05  2.0341099427944673e-04  3.6473280852208093e-02  5.2546762521760793e-03  1.4341346463544696e-01  2.3211745231757040e-02  2.2440999258007955e-02  1.3375343712844299e-02  1.9788268222121171e-04  3.1862838611944382e-04  5.2816556841533191e-02  1.9681768580241698e-04  1.4535856107010974e-03  4.0332665666142548e-02  5.9186506782148898e-05  1.0716620006293929e-03  1.0332390006774367e-04  1.1467705741527656e-03  4.1293201043048197e-04  4.3329348264403947e-02  1.7231289057940552e-02  4.1339705979853099e-02  5.4754456412290070e-02  3.6455729005853763e-04  4.8314957927418530e-02  4.6800952818855983e-02  4.6356674225796680e-02  2.3620199707902705e-04  3.7781664187062648e-04  1.9590387037323590e-04  3.8717335888890987e-02  4.6221524815554541e-02  4.1726766804905585e-02  3.8234242209450549e-02  1.5929120221487528e-02  2.7287166184272100e-03  5.3863783391349576e-02  1.3155028783190413e-03  4.6113274712536498e-02  6.1049975959159584e-02  6.0630981032910439e-02  5.4860488252918681e-03  2.0412685084568612e-02  3.6678434756056581e-02  1.9261450632373670e-02  4.7873224514945011e-04  4.7066685161188664e-02  1.7141837013485780e-04  3.4106547499174883e-02  3.0851845257545578e-02  7.9995659036043248e-02  4.6857818890509217e-02  5.1280148267522203e-02  4.8517679856242057e-02  5.1545220765126194e-02  3.2636745810630608e-03  2.9259175577162028e-02  5.5294141305683275e-02  1.9338062539116511e-02  6.7177411315876472e-03  3.5290898011177622e-02  4.4503623600657488e-02  2.3030823144341964e-02  1.0674354005639430e-02  2.8671289494688366e-02  2.2683200932010201e-04  8.6362774228176313e-04  4.4261153169620572e-02  4.8915561830662702e-02  2.4854522656955922e-03  2.2919910943046154e-04  3.1479287313855537e-04  1.2670422620535278e-02  6.7280185251869892e-02  8.8384598319132483e-03  1.7452819995699548e-02  4.5920632226987126e-02  3.6259282307901958e-02  2.8326213440769266e-04  8.6394312345379101e-02  1.7361785384345180e-03  1.3493176100043938e-03  3.7415624594449852e-02  3.9073663869424069e-02  4.6344260329527806e-02  2.8502102909320456e-04  1.2515351387032967e-03  3.3276768115014430e-04  3.3874699905514743e-04  5.2121941939221742e-04  3.1364844741906396e-04  1.3432146833619867e-04  8.4605959257345681e-02  3.7867088033719527e-02  4.4798224802618754e-02  4.3273306546953820e-02  1.4236392947496656e-02  3.4054660766143774e-02  4.5431752101647377e-02  6.1074971385734053e-03  1.5286172292862390e-02  7.3198474833915728e-02  4.6592337150639790e-03  5.0674863403237305e-03  1.7831438841222361e-04  2.5322627885178081e-04  7.8733776159109166e-04  5.6840881647642245e-04  4.1529764613269987e-02  1.8370506814007365e-04  4.5538887466508526e-02  4.7353353669335130e-02  4.7348815524600532e-02  4.3862187775987591e-02  4.6197063562624395e-02  4.2565127077971679e-02  4.6068586055508752e-02  4.9592657022283750e-02  4.3927993423398169e-02  4.1189138912607601e-02  3.7577341260597884e-02  4.5164938676323742e-02  2.7434260174151997e-02  1.7991451589740066e-04  1.4470736686961736e-03  1.5359983206605357e-03  9.4088483582153537e-04  5.3008875486630413e-02  5.9060292547961804e-04  1.0773917829869121e-03  3.8586654543523437e-04  8.8682279056142470e-04  2.6049375356497235e-04  1.8548687294498063e-03  3.7726255347604221e-03  3.1278263336320306e-03  5.0729188432745553e-03  2.6046108785924629e-03  4.8123854855751061e-02  1.7443760053172132e-03  1.4531618404231518e-02  4.7345474465406795e-02  7.4735796960620814e-03  2.9985378672710502e-02  3.0864921769064276e-03  4.3746557678184868e-02  1.0887627637718015e-03  2.4782781450143542e-04  2.8570980933639845e-04  3.7707804713271308e-02  5.7830918160139445e-03  3.4119134788196274e-02  5.9176486715694261e-02  6.1834410638485264e-02  1.1288585922129286e-02  3.9373474369561970e-02  3.4329654108828777e-04  1.1998514336787358e-03  4.3265780268615184e-03  4.2597248047232710e-03  4.7516782299666355e-02  1.3391192237251104e-02  4.3119648485048158e-02  2.9739961664916933e-02  3.1133006181700468e-02  5.2739738639071318e-02  4.7425616607046375e-02  5.2290840513447213e-02  6.3777079449493105e-03  1.8358314222688177e-04  3.1472964136907778e-04  2.8225410691291516e-04  3.5876050835656488e-02  3.3279912182173799e-02  4.6938516724548844e-02  2.2530071524927604e-02  4.0588760598850145e-02  1.4012730270035620e-02  4.5117708770492732e-02  4.1658970496198967e-02  2.9878259094488119e-02  7.6753530329150259e-03  1.9434881213957773e-02  3.3966917596627677e-02  3.9118889074638404e-02  4.1453903093290868e-02  4.2519275641932593e-02  1.6923236527781698e-02  2.1376791715126031e-01  1.8504558528108341e-03  7.3801263333487870e-04  8.0351423680850690e-04  8.3046508388113210e-03  1.8540290051559272e-04  4.2546627914956558e-02  2.4241728923819442e-02  7.9380184931955458e-04  3.8481528840347834e-04  2.4211280084112893e-04  6.5731021973308559e-02  5.2927325806275898e-02  5.7420821367055945e-02  6.3294102934525706e-04  4.3901162194577781e-04  4.5198835612330691e-04  4.2239712448856510e-04  5.5207832628411261e-03  4.2976299615651171e-02  3.8816182312631689e-02  4.1144903956314240e-02  9.5313074025416738e-04  4.5330478546519462e-02  2.4785110902114669e-03  4.4206253802460994e-02  4.2300533563930459e-02  3.3748967306766166e-02  3.2145735759135071e-03  5.9013002701279862e-02  3.6873723346243288e-02  2.2453390864001924e-03  5.3606178171772549e-06  5.5607546293315073e-06  4.0132432420185999e-06  3.3217531925173652e-04  2.3706650789647459e-03  3.3282216761002214e-04  1.9142629783236280e-04  3.9129537809881826e-06  1.5777916288173620e-02  8.9413164519044491e-02  1.1072073539232077e-01  4.1431681877780326e-02  6.6413340636298744e-04  2.5685454725099463e-02  3.7736447942487948e-02  3.2052363220344035e-02  3.3632205828770599e-02  4.6078647684975847e-02  4.5198752852017576e-02  4.9488376052404706e-02  4.6518066126744029e-02  2.3900874159193161e-02  4.6099776134873066e-02  3.6774514973058045e-02  3.3065566606508390e-02  5.1600365537615429e-04  2.4621384793162126e-03  5.2778032759967604e-03  2.7041537277875329e-03  2.4065426358460622e-03  1.4681218947031345e-03  5.4158409787820522e-02  1.5319346164221308e-02  2.0947451946167034e-04  2.2710169655905458e-04  3.5396101499325666e-04  5.0031657435692489e-02  2.2556227785633772e-04  1.7242675038030389e-04  3.0959603705696192e-04  2.2706249627525616e-02  2.9091998974492675e-02  2.8423060325256905e-02  1.7921418093462882e-04  4.4358586506178722e-02  4.5810512955758927e-05  6.4978279984262925e-03  3.0611938879920805e-02  1.5487747707546151e-04  3.5561077826451757e-04  4.6457115354640900e-02  3.3731702964216903e-02  3.0818470264571577e-02  3.7043367447721791e-02  4.3111086956149308e-04  6.1474515031707182e-04  4.9294578792216090e-02  4.9025224728157020e-02  4.4392231014273212e-02  3.7592780188953498e-02  5.0085209833139105e-02  5.4131637698900580e-02  5.5584670493239287e-05  5.4175968719205603e-05  2.6948316960528278e-02  2.9599490664961970e-02  3.8285389801790914e-02  2.3733497093766993e-02  5.1361568199701554e-03  1.0035322319478915e-02  1.8547975508080228e-02  2.6183733376407812e-02  6.5106935741573947e-04  2.6794498616801266e-02  2.1637258133403448e-04  1.4670599829908509e-02  4.4140474705706839e-02  1.1700852787458755e-03  5.0507875007150059e-05  2.1928174306416517e-04  4.5960959892440375e-05  1.8743107254852315e-04  3.8335011297560117e-04  6.0290150512204519e-04  9.6780334892745718e-04  1.0589621469192371e-03  1.1423058226647478e-02  4.5415223100532580e-02  4.7276908793393682e-04  2.4477768681322690e-04  3.9123537803552863e-02  4.4314186963007048e-02  3.4389860849788867e-04  3.6482271349029050e-04  4.8569196833006398e-04  3.1932155324824866e-04  3.2314047381020124e-02  2.6980010035665278e-02  3.7292914370774956e-02  3.7442079048988955e-02  5.1806703583219066e-02  3.1807852546588890e-02  2.9251116689410630e-02  4.6538629250419364e-02  3.8431898939259468e-02  3.7164868429285000e-02  1.8202849471950451e-02  4.1244322435453347e-02  2.6902313683571159e-02  3.2348040200688447e-02  5.9088584933032874e-03  4.0309616615246305e-02  2.7565534420050863e-03  3.5618188042335186e-02  1.0196858164601776e-02  4.5845238638991641e-02  3.0112380173582544e-04  3.5754310181843586e-02  5.3648729661303671e-02  4.9465959806541941e-02  1.1243395531146253e-02  8.3213252330901922e-03  2.0844762043083033e-04  2.5006562043567278e-04  5.1666207360071943e-02  4.0127474033419465e-02  4.1381024728191433e-02  4.2413906984413452e-04  5.1786152887632567e-02  4.5519485729290238e-02  3.6990331568467531e-02  3.1304442930588333e-04  2.6320865853675021e-04  4.5559282580417211e-04  1.9534753044734345e-04  4.4681072299399303e-04  9.5164826756775005e-05  3.6023593699937455e-02  3.9731763768687076e-02  3.4228976465496767e-02  4.6577767901711963e-05  3.3292931782981491e-04  5.2692956448398612e-04  4.7255849325437698e-05  1.6396661562944763e-04  1.4449657910306474e-04  5.2151540464207384e-02  1.2611549173285701e-03  1.4164677357280731e-04  3.2637845469795062e-04  3.0570563229596025e-04  2.1631140799946005e-04  4.6516568803320009e-02  4.7166681591614357e-02  4.6299342979572070e-02  3.0263899133204070e-02  2.6408603197000495e-02  4.5890247322485644e-02  6.7328849291020383e-04  1.0200793309855993e-02  7.4265711128313448e-04  3.4797236279521249e-02  2.8255453451130681e-02  9.8601111706766147e-03  4.5571702992805586e-02  1.6075547955183459e-02  7.8770766442066934e-03  4.3735408589631507e-02  3.7027368945986329e-02  2.9722464202574476e-04  2.4211971535075108e-04  4.6267629984113025e-02  1.5825330232643472e-03  5.2515664189574818e-04  4.5655421892118589e-02  4.8232454509933041e-02  4.5625327014837354e-02  3.8889921535351230e-02  1.0909890794193995e-04  4.5835052041835370e-02  3.4265408653548893e-02  2.6317786242705209e-02  2.104449460