<?xml version="1.0"?>
<VTKFile type="UnstructuredGrid"  version="0.1"  >
<UnstructuredGrid>
<Piece  NumberOfPoints="1515" NumberOfCells="2858">
<Points>
<DataArray  type="Float64"  NumberOfComponents="3"  format="ascii">-0.5 -0.0001 0  -0.5 -0.5 0  0.5 -0.5 0  0.5 0.5 0  -0.5 0.5 0  -0.5 0.0001 0  0 0.0001 0  0 -0.0001 0  0 -0.5 0  0 0.5 0  0.5 0 0  -0.25 0.0001 0  -0.25 0.5 0  -0.25 -0.0001 0  0.25 0.5 0  0.25 -0.5 0  0.2500374937493749 0.1875187468746875 0  0.5 -0.25 0  0.25002499 -0.125 0  -0.125 -0.25005 0  -0.125 0.25005 0  0.5 0.25 0  -0.25 -0.5 0  -0.5 -0.25005 0  -0.5 0.25005 0  0.125 -0.3124916691673332 0  0.125 0.3437443727884549 0  0.3187498332767468 -0.3187498332767468 0  -0.3125 -0.3125124974994999 0  -0.3125 0.1875875025005001 0  0.04436566007004419 0.1785185187387698 0  0.3437706224620182 0.3437706224620182 0  -0.359407810625422 0.3594296915637348 0  -0.359407810625422 -0.1406703084362652 0  0.08209948494863104 -0.1484533219292508 0  0.3281296842191969 0.03125624875007487 0  0.1612337437527647 0.0454945319044936 0  0.5 -0.125 0  0.3736573308633327 -0.1902100573489204 0  -0.05632383965282133 -0.1281636979131719 0  -0.1875249975 -0.37501249874975 0  -0.02161822989173764 0.354580025951059 0  -0.2160757009003203 -0.1393657085918785 0  -0.01783801249259284 -0.3526895391541273 0  -0.2160757009003203 0.3607342914081215 0  -0.125 0.0001 0  -0.125 -0.0001 0  -0.1875249975 0.1250875012502501 0  0.5 0.125 0  -0.375 0.0001 0  -0.375 -0.0001 0  -0.5 0.125075 0  -0.375 -0.5 0  -0.5 -0.375025 0  0.3828324180271084 0.1875 0  -0.125 0.5 0  0.5 -0.375 0  0.375 -0.5 0  -0.125 -0.5 0  -0.375 0.5 0  0.125 0.5 0  0.125 -0.5 0  0.5 0.375 0  0.375 0.5 0  -0.5 -0.125075 0  -0.5 0.375025 0  -0.06200365993838185 0.1102431244359298 0  0.3921286730834987 -0.07100003899567721 0  -0.001178265146973292 -0.2342725669761844 0  0.219639755882476 -0.3848202826230195 0  0.1764909845376315 -0.2113963654501196 0  0.2343901841136658 0.3031458088961128 0  0.1561195030924493 -0.06553680147678266 0  0.1485501800845649 0.1522005597879607 0  0.07430925316253632 -0.4062458345836666 0  0.1875 0.4218721863942274 0  0.0625 0.4218721863942275 0  0.2776974776570886 -0.2252166395728846 0  -0.2310132101974821 0.2556304703469177 0  -0.2310132101974821 -0.2444695296530824 0  -0.3906265628125469 -0.3906296862497968 0  -0.3906265628125469 0.1094703137502032 0  -0.2812687506255001 0.09383750062512503 0  -0.2812687506255002 -0.406262499374875 0  -0.4101472686723712 0.2071199254696213 0  -0.4101472686723712 -0.2929800745303787 0  0.2470275540227946 -0.02585328932041452 0  0.4068247800249947 0.09140209453477602 0  -0.1176406316218027 0.3957739114529177 0  0.4080574838155757 -0.2809016730332933 0  0.3125 -0.4219344228213859 0  0.4088486496673779 -0.4088486496673779 0  0.1167033063099591 0.2455046542815969 0  -0.02381261413756171 0.2533622281544139 0  0.02735543470987723 0.08802303626707711 0  0.3144655814479235 0.2551097933485553 0  0.2801337679615206 0.4118308473117793 0  0.4101587089138863 0.2773478512831281 0  -0.09689860681079282 -0.4078094624324944 0  0.213976519574722 -0.2941495474331945 0  -0.318965898965983 0.2781458178971435 0  -0.3125 0.4357826538464097 0  -0.318965898965983 -0.2219541821028565 0  -0.3125 -0.06431734615359029 0  -0.4357704230694522 0.3125375 0  -0.4357704230694522 -0.1875625 0  0.4114732283419867 0.4114732283419867 0  -0.4234646583494089 0.4234743507195528 0  -0.4375 -0.0001 0  -0.4375 0.0001 0  0.3164258563077259 0.1230517971377134 0  0.04931026741366369 0.300666438050672 0  0.2304865209107167 0.1009680687096636 0  0.02061587644269779 -0.08558486663800556 0  0.09390691211100699 -0.2329943594667239 0  0.08896107880644889 -0.006809950500825342 0  -0.1875 0.5 0  -0.1392552316473008 -0.09019077220175532 0  0.4170297537744737 0.008612617817243748 0  -0.4243694331702185 -0.08478222235936261 0  -0.1416933693607303 -0.1709733993077484 0  -0.09511425322415427 -0.3261090638251909 0  -0.04508670308176045 0.4323857419859515 0  -0.4375 -0.5 0  -0.1187189609291948 0.1687838380963837 0  0.3117722643778845 -0.07351457101062323 0  0.1513445599038777 -0.4251753449096755 0  0.04472177709904164 -0.3011105058468416 0  0.001740722226491711 -0.4250539693950984 0  -0.03075788851996441 0.178560406845558 0  0.1766313586052732 -0.1370243862559475 0  -0.0761550533906552 0.3051296889632589 0  -0.1485469487091727 0.3268133048125818 0  0.1930083860569673 0.2386735170085497 0  -0.0625 -0.0001 0  -0.0625 0.0001 0  -0.2878141094770303 -0.1320687430427478 0  -0.2875995151119595 0.3444544772933048 0  -0.24076159142329 -0.07161431170272106 0  -0.24076159142329 0.428485688297279 0  0.4263700347703773 -0.1373417231816959 0  -0.1856875708107399 0.19821478019016 0  0.09322297310683496 0.06338537237428626 0  -0.07466041728962823 -0.1981228067401687 0  0.009513123991135172 -0.1613319531958586 0  0.3092144166352111 -0.1625850961304104 0  0.3437404121717113 -0.2534277690952264 0  0.4379744025071972 -0.2176839612869874 0  -0.1297061011176702 0.07587858854060507 0  -0.1875 0.0001 0  -0.1875 -0.0001 0  -0.1875 -0.5 0  -0.1633110600051376 -0.3090045011162743 0  -0.21877499875025 0.06259999875025002 0  -0.21875 -0.4375124968750625 0  -0.25001874937525 -0.3437749968748749 0  -0.2500187493752501 0.1563250031251251 0  -0.5 -0.4375125 0  -0.5 0.06258749999999999 0  0.08904799960830578 -0.08015900599685086 0  0.4108334826406196 0.3444103681633853 0  -0.0625 -0.5 0  0.4414087098136942 0.2187640586098291 0  0.4382361660678968 0.150288432919798 0  -0.3125 0.0001 0  -0.3125 -0.0001 0  -0.3416336343815852 0.06187820768002609 0  -0.3125 -0.5 0  -0.3416336343815852 -0.4382217923199739 0  0.3168016282179152 0.1891009224226147 0  0.4368875345166075 -0.3446993355472595 0  -0.05975660640830217 -0.2683150418715617 0  0.3458703977041003 0.4362216268226822 0  0.5 0.0625 0  0.5 0.3125 0  0.5 -0.0625 0  0.5 -0.4375 0  0.4375 -0.5 0  -0.04197328552084911 -0.06329083152961786 0  0.2257906778195176 0.03586621568734723 0  0.2286857476565217 0.36951555023185 0  0.3548787707540964 -0.3727197121900284 0  -0.1790795964032311 0.4125871598709088 0  -0.0278086253378118 0.05696913583040467 0  -0.2640893654172825 -0.190631969293494 0  -0.1533594275423699 -0.440977335357388 0  0.5 0.4375 0  0.4375 0.5 0  0.1704903431553385 0.2986434949108457 0  0.08721475273820462 0.1287687476127682 0  0.1875 -0.5 0  -0.0625 0.5 0  -0.4375 0.5 0  -0.3125 0.5 0  0.0625 0.5 0  0.125 0.4359369935185367 0  0.3125 -0.5 0  0.1875 0.5 0  0.0625 -0.5 0  0.5 -0.3125 0  0.5 -0.1875 0  0.5 0.1875 0  0.3125 0.5 0  -0.5 -0.1875625 0  -0.5 -0.3125375 0  -0.5 0.1875625 0  -0.5 0.3125375 0  -0.5 0.4375125 0  -0.5 -0.06258749999999999 0  0.3624254104606854 -0.1274336378120225 0  0.1857642697873453 -0.01126882530927889 0  0.03669184495608396 0.2400031982312926 0  0.04068015303098439 0.3629261100764373 0  -0.3851162339112683 0.269026866774594 0  -0.3758332300807991 -0.1995452526923809 0  -0.446144648587372 -0.34378125 0  -0.446144648587372 0.15631875 0  0.3504998016039519 -0.02589861883840036 0  0.2836777321248879 0.07223256202683162 0  0.21875 -0.4466460035652602 0  0.1774501368185094 -0.3419431906700547 0  0.2592287652038449 -0.3368353496836486 0  -0.4486577479325732 0.09383124999999998 0  -0.40625 0.05134972627205531 0  -0.4486577479325732 -0.40626875 0  -0.40625 -0.4487502737279447 0  -0.07907884158578801 0.2127234227389962 0  0.2826672956396865 0.340725212476292 0  0.2552094419670018 0.2470909165729528 0  0.1235030570827048 -0.3722630563328095 0  -0.1765523267242401 -0.2196325740312749 0  -0.3653881707177284 -0.256399556620603 0  -0.3667881364584723 -0.08355066867835562 0  0.1448027058369495 -0.2589171712236736 0  0.2204190758351349 -0.1742931558527921 0  0.125595190811689 -0.1854735536931699 0  0.2751135960266025 -0.2821263988783404 0  0.04714559827497029 0.03095590907283807 0  -0.3694518448121097 0.4428768192088114 0  -0.4163493718954405 0.3665341424253254 0  0.2065677312659464 -0.0897482605048449 0  0.04596501084766122 -0.2039288085874983 0  -0.3678348759016452 -0.3352975447880205 0  -0.3331464162279717 -0.3812640910313448 0  -0.3678348759016452 0.1648024552119795 0  -0.3331464162279716 0.1188359089686553 0  0.006928352547084439 0.4089314103168539 0  -0.008754979675293741 -0.28865535545956 0  0.454824000777391 -0.03125 0  0.4453084397952883 -0.08555947234219879 0  0.0400389030608287 -0.3591593324500765 0  -0.3565047668221014 0.2214443888382642 0  -0.1767790649240408 0.276160039146296 0  -0.4407450517553578 0.2555055370068006 0  -0.4424041217249974 -0.2449977221857678 0  -0.0101841459589043 0.1278467808234489 0  0.1946666826231925 0.1831558471035277 0  0.1023041143695485 0.1885027832887665 0  0.1383943178482503 0.09688656085697314 0  0.1738321521953076 0.3687430643819201 0  0.09375 -0.4563154147117792 0  -0.2831024225358643 0.2351964925231401 0  -0.2621637468582121 -0.2899792135739121 0  -0.2423367266168128 0.3108531660207947 0  0.3858515397252176 -0.3293494555229365 0  -0.09921103529049136 0.4494480844437962 0  -0.1387217209722605 -0.3554699308920083 0  -0.06600083182100508 0.3836351847814501 0  0.1309954671830858 -0.1114321286398948 0  -0.09375 -0.04518048647049126 0  0.04208778762923838 -0.03517827620526504 0  -0.08165643227347709 0.05080163226699017 0  0.2987692351119484 -0.01319048554596328 0  -0.4136288823076366 -0.1379960981994732 0  -0.1856470434007142 -0.05707095126749213 0  -0.15625 0.4588983004055426 0  0.301492156088943 -0.3696020442065089 0  0.2261014656445051 -0.2255765688706129 0  -0.0254711816102797 0.3040308714413081 0  -0.2359814035109398 0.2051098885755096 0  -0.2142660728025848 -0.3074346058732286 0  -0.0444842016587006 -0.3987296650352232 0  -0.06299926340697812 -0.4476735265309565 0  0.2370119789310965 0.4463270361850639 0  0.1025408210352734 0.3898406831534957 0  0.02523186154102609 0.456121755814222 0  0.2703582881149408 -0.4522472093634566 0  0.34375 -0.460967211410693 0  0.1519529867048281 0.2096636028655708 0  -0.1028373102819492 0.3477334553616848 0  0.2543545123482477 -0.07525044338081299 0  0.4586232703312498 
[...]
<PointData  Scalars="f_184501"> 
<DataArray  type="Float64"  Name="f_184501"  format="ascii">1.4264943242949051e-06  1.3172626978134400e-04  1.4605966360191069e-01  6.3535934232247085e-02  1.3004013626995458e-03  3.2260153616936466e-07  9.9287758646393565e-01  9.7340599990188736e-01  1.1678336363581699e-02  1.7294013511942298e-02  2.8517502530956508e-02  9.8848632931995890e-04  7.9375017586682118e-04  1.0256987384993739e-03  4.5894195058951114e-02  3.0691923729413841e-02  5.5057872921320847e-02  4.1383738728939586e-02  5.5018828567507984e-02  3.1096644621473085e-03  3.5534211715126632e-03  4.7529676471795401e-02  1.7881620587970471e-03  5.1991840557257755e-04  5.8882426694671555e-04  3.3942805328799161e-02  3.7856144753265285e-02  5.2529375402730394e-02  1.8959945089398804e-04  3.7249914477258285e-04  4.0095030635354634e-02  5.1978131347439262e-02  1.5219971494660964e-04  3.6553589576784472e-04  5.6098756258759291e-02  4.1110314519042776e-02  6.1664982199158176e-02  3.1978008642697953e-02  4.8132577271579359e-02  8.2344618928559925e-03  2.0003933944623157e-03  1.5426879944657692e-02  1.9669236013404633e-04  1.2214668438412247e-02  1.1116280192439035e-03  2.7786606346685496e-03  2.7512680698101692e-03  1.9282381300492570e-04  3.4576770468583824e-02  1.1171779845230596e-04  1.1872765285351515e-04  9.3265625470286589e-05  5.4803142293826073e-04  5.5842922693527715e-04  4.6732425203110994e-02  5.6247647590076354e-03  5.4914153660515365e-02  4.7516489644501038e-02  5.1472509908727935e-03  1.1777807244339376e-04  3.3308140021615515e-02  2.0335439546658767e-02  5.9327956460735465e-02  5.3395616052640670e-02  1.0165802026129211e-04  1.1806849955513031e-03  6.6427959364283810e-03  3.9331168708685811e-02  1.8321375868041820e-02  3.7282082982068261e-02  5.4618268677126644e-02  5.0565129551318040e-02  6.7124326661014269e-02  6.3466047051193783e-02  2.0020209982353966e-02  4.1609499884294125e-02  2.6143931931508525e-02  5.4737923459155145e-02  4.1424471940978573e-04  4.2980859899326412e-04  2.8562072665037403e-04  3.0934917898660678e-04  4.6902245356531712e-04  7.1614821859801372e-04  3.8262541776038254e-04  2.1643699853147484e-04  4.5815460069386707e-02  3.9294396628076968e-02  5.6749739063484180e-03  5.1119157707163139e-02  4.3868833319837583e-02  6.0656362889233359e-02  4.5749443980304685e-02  1.6066191315086499e-02  6.2270747635499966e-02  5.2181591725539746e-02  4.8622900454580148e-02  5.0470673867052826e-02  5.7589337884682056e-03  4.6699973773137483e-02  2.0723835347182754e-04  9.7039816385020774e-05  2.2274498191763055e-04  3.9187380026513399e-04  4.7503673788828484e-04  2.6670070890865018e-04  5.5096677020420350e-02  4.4664625197421599e-04  1.6942886015793392e-05  1.3830834817196663e-05  4.7163657722114345e-02  2.8358768972679773e-02  5.3354313271679304e-02  5.0736035495994022e-02  3.9085845295951605e-02  1.4801314621673609e-01  2.4270745575988620e-03  3.7943141463583500e-04  3.5736391842372608e-02  1.4740299855965015e-04  1.2650293511823412e-03  5.6916993608691581e-03  1.2406130633623723e-02  3.1506539636341107e-04  2.4205510664122650e-03  4.4917165887350334e-02  2.5932474408847678e-02  2.2262732500690996e-02  1.2507332162509916e-02  1.5754090763057307e-02  6.3447327446839855e-02  8.6058618797594296e-03  3.1601142113107297e-03  5.3737665394426398e-02  7.3582153258531478e-03  9.2878717380359757e-03  3.5366579080484606e-04  1.8694696272162351e-04  4.7230964453977238e-04  8.5959445482471520e-04  3.9766407239591531e-02  5.6869691648459659e-04  1.0204355043198098e-01  6.7850385532837246e-03  2.7051377232865579e-02  5.1645622202144602e-02  5.2964995537839163e-02  4.3859996173329932e-02  5.0935137889279432e-04  1.8011905052813248e-03  1.8772182650527852e-03  3.1912747131320599e-03  2.2121874789180706e-03  5.9831229152098556e-04  1.8476229965095335e-03  6.9621252349721745e-04  2.7770467525762893e-04  3.0725970702176995e-04  1.3400813870156773e-05  8.9418639342879233e-02  5.3296625012501264e-02  8.1028598388910630e-03  4.5588430690129730e-02  4.0724177572729843e-02  4.0269946830209796e-04  4.2943254370262951e-04  3.2344252417691581e-04  9.7817898019549173e-04  5.2463182687040647e-04  5.0880752343657153e-02  5.5120499765506231e-02  8.7467088254191468e-03  5.1785200326805773e-02  3.0328633690997604e-02  5.4126365781921933e-02  2.9190953760175432e-02  7.9153618939747150e-02  7.1541650591195036e-02  8.7544131192025029e-03  4.7430233768444914e-02  4.6818465259774601e-02  5.2998790315664582e-02  2.5112531209363622e-03  1.4250127744245049e-02  2.3780588574647083e-04  3.6613777065197879e-03  6.2581182900326660e-02  5.8273498834135996e-02  4.6568883609796205e-02  6.6772299000703111e-02  2.5517794776784557e-02  1.0583981153587465e-02  6.0883092274033454e-04  9.7494506851532843e-05  2.5500801458630779e-02  3.4433380456171933e-02  3.7058031488003823e-02  4.0636368331154728e-02  1.5848610745608897e-02  4.7688937602883230e-02  3.6534423746281242e-02  4.0749949086367261e-02  4.9662365599798655e-02  3.0112457801100446e-04  6.3478488388458705e-04  2.9247968011023164e-04  9.2798191682476479e-04  1.3681873460309876e-03  1.5590360218193220e-05  4.4836350580419758e-02  5.2418576060648724e-02  3.0044576813994896e-02  2.4498556188988843e-02  3.3297887647900753e-04  2.9179404775541128e-04  3.3217152481028093e-04  2.3773125167971407e-04  4.0014658047061440e-02  4.5440538151551954e-02  3.0700834830834096e-02  3.7250041145868940e-02  4.6477536882086640e-02  1.1158491620962852e-04  1.1584004205992212e-04  3.5087695382381780e-04  4.1308366918893632e-04  6.9999330469915312e-03  5.0593823094283515e-02  5.3597264196155771e-02  2.7807333035388567e-02  9.3032947954488398e-04  1.8583517065997080e-04  2.9891570204451835e-04  4.3736961833905616e-02  5.8480531179435760e-02  5.4283737990797783e-02  5.2302910032649391e-02  3.1766376808780833e-01  1.1083180651195848e-04  3.8399518324544230e-04  5.7910470609173342e-02  3.2950002155726715e-02  1.6676498330904705e-04  3.0706900908000279e-04  4.1929590929061641e-04  4.4553628634509359e-04  1.8585402479109003e-02  1.4832045976519360e-02  3.2340205287103185e-02  3.4954200770674876e-02  1.8332110486015848e-02  3.7791367264496670e-04  1.5099924419113399e-03  4.2889564391552858e-04  3.0921183722548077e-04  2.4423500689078212e-02  5.8063029937179635e-02  5.2986667125274035e-02  7.2415262972223823e-02  4.2119499490238070e-02  1.9031036985858077e-02  2.4978705647746280e-04  3.5912849768913703e-04  5.0091470880558962e-04  5.4687388599714289e-02  7.3402166069514779e-03  3.4750601161514065e-03  9.9488337877565673e-03  7.1294259444662139e-02  1.5094589761478125e-03  2.1058363463097335e-01  1.6679745936829117e-03  4.2270278570127072e-02  2.6335187185975192e-04  6.5450266463039949e-04  3.7841053293457289e-03  4.7633703136017974e-02  5.4887890780995367e-02  1.5163683318462748e-02  2.4843349070424487e-04  9.3414455707724580e-04  9.1156320384356386e-03  7.8517127228879598e-03  4.5139663560339112e-02  3.2630349247051778e-02  2.0828395531013989e-02  3.5341574570641118e-02  4.4142083604862450e-02  5.4837247063977135e-02  6.4395168376501413e-03  4.9607889555925856e-02  3.5230519489114993e-02  4.2259079385093011e-02  4.3503821910160362e-02  3.2188754880479807e-02  1.2319588892974068e-03  5.8962550839670113e-04  1.1905398105458394e-03  3.3835728749067548e-04  4.0963349614243992e-02  5.0107023577727249e-02  5.1672678670788917e-02  9.0369572489211637e-05  6.5059298123118267e-02  5.9234529072224811e-02  4.7263231667904755e-02  2.6307997252746084e-02  5.2541392312801756e-02  1.5559911715702233e-02  3.8577467747321098e-02  4.9110124940442965e-02  2.5362083964969393e-02  6.9890505144544285e-02  3.1599108108478760e-05  5.9810502784084431e-02  5.0646325142032898e-02  8.1522331219108846e-02  4.6108857864547492e-04  5.5528391160550687e-02  5.8762663698481862e-02  5.6456827223971974e-02  5.2731061406323644e-02  1.1534385904176170e-03  3.4749805990595246e-03  1.2121227304958166e-03  3.2981081550522020e-04  5.4209815640263774e-02  1.0110583534988058e-04  3.2776381480861572e-04  2.8180752821252342e-05  9.5517446548779687e-03  2.0093886837081916e-04  4.9439594074779498e-02  1.7202346461885035e-03  5.2165282637054028e-02  1.3638964083469553e-03  5.0899797887019600e-02  5.1675451126196030e-02  7.8153718334555197e-03  3.2129831028744285e-04  5.9776654809453267e-02  5.0345762975527550e-02  3.8888095595781673e-04  3.3230575467093715e-04  1.4723667155111897e-02  2.4938827906702220e-02  2.9705941778317515e-04  2.1744810034996548e-03  1.0122055804990015e-03  3.7220938398427745e-04  4.1945939700902636e-04  2.5985942546879240e-03  4.9372631964198103e-02  1.6216325630509141e-04  2.1509968057813747e-04  5.5571438854597269e-03  8.8243147030038407e-04  3.8122838100107748e-04  1.8286509844558096e-03  1.9427298359788004e-04  7.3111443080149923e-04  3.2598640360754572e-04  5.6502287544240898e-04  2.5795353125044582e-04  3.9264581059491254e-04  1.8334377790557108e-04  5.5420665639409721e-02  3.7412226164994088e-02  2.8796626739222571e-02  4.6749210322206011e-02  4.1692893849132120e-02  8.7015308118512061e-02  4.7885566778155766e-02  2.1185400954577192e-02  3.9072065495571941e-02  4.7238446202755878e-02  5.1554216065643178e-02  3.1928070119837857e-04  5.5439300101481112e-02  6.9147018950872760e-02  6.9221376620865376e-03  7.0249048053208016e-03  9.9728314423855628e-04  8.4208031168150411e-04  4.0244326822915143e-02  1.8883780149653393e-02  6.0732572278668663e-02  4.3665807502264418e-02  2.7776830342837565e-04  3.2326962439946733e-02  2.2464769286111162e-02  3.6201533224062284e-02  3.1421753436086643e-02  5.3574802130053494e-02  3.7871443097691518e-03  9.3297060975540294e-04  2.3961261464901113e-04  7.2788748553226682e-05  3.4756711823331288e-02  5.1904173456585476e-02  5.3135886485717279e-02  4.9997251179617112e-02  3.6411277551691823e-02  4.0564264030320665e-02  2.6108029850217516e-02  4.3695483850147987e-02  3.8031197158780852e-02  5.7784329946891096e-02  1.4131960108646678e-04  7.2702505722400934e-04  4.7438769416126986e-04  1.1440335243695246e-02  2.9916249181530192e-04  4.2792162119251631e-02  9.7895177474355242e-03  1.0701066396816719e-02  4.4359586255191125e-02  5.1175415387071472e-03  3.9083378110208081e-02  6.3039920203909609e-04  1.9264048690800081e-03  4.1090337247683356e-04  1.3701613339762601e-02  5.2550783399938628e-02  3.6002607212330409e-02  1.6682889967321247e-02  2.1233026840505979e-03  4.3799632134175868e-05  2.4741371880235291e-04  4.1853860745332996e-02  3.3637951506087106e-03  1.6800570791357985e-01  2.2703201572813449e-02  2.2387041277621329e-02  1.0399336732505050e-02  2.1241529608980779e-04  3.5816080297748393e-04  6.1145790148767025e-02  2.9326577811689738e-04  7.5067565806383218e-04  4.1921440018853992e-02  6.7382877990496888e-05  3.7010834724250749e-04  1.2303320248195908e-04  7.5637139384014608e-04  4.4060277429112130e-04  4.6464033728237666e-02  1.4355082898929049e-02  4.9209586615295758e-02  6.3453802181101901e-02  2.2515066139666936e-04  5.5727847908879351e-02  5.2126529466497588e-02  5.0041478859197901e-02  3.2631594825377355e-04  4.2908006148962880e-04  2.4858919218947344e-04  4.4319590854370504e-02  3.2700331597092187e-02  4.7675713019728602e-02  4.4772906692496103e-02  1.4012704948750201e-02  1.1250184154676698e-03  8.1341763448703988e-02  1.2593649927840251e-03  4.8958132281548328e-02  5.7995229847943953e-02  6.9474164430769370e-02  1.8025225375209377e-03  1.1291591197977902e-02  2.8626016501673332e-02  1.3731491391882476e-02  2.4702065329738741e-04  5.3460999008175886e-02  2.7802453590477518e-04  3.8877342071662088e-02  3.4965228968487402e-02  1.2246110656735755e-01  5.3866711619464103e-02  6.5437411195846673e-02  5.9044351699336355e-02  5.9539674810939934e-02  2.3856122163637438e-03  3.0258147457947162e-02  6.2820469498777773e-02  1.6693749034265661e-02  4.9261533723746684e-03  3.8266806508538302e-02  3.9365484493210125e-02  1.4638067004678956e-02  8.3045266532069950e-03  2.2761833204022044e-02  1.7688861561891911e-04  4.8636829563314957e-04  5.0998377296117683e-02  2.7414725562740598e-02  1.6414056925068321e-03  2.3219099826818292e-04  3.0371145835828418e-04  5.0125553363018320e-03  7.2488382230583071e-02  5.8160087364678651e-03  1.5919225410264470e-02  5.2164940361188475e-02  3.5000476817505649e-02  3.0115390296956085e-04  1.0854607724710869e-01  1.0577185654467331e-03  8.0020814956628769e-04  4.2119043601627423e-02  4.4338731045807878e-02  5.1478195848873191e-02  2.7290297507863534e-04  6.9400122893929880e-04  2.0963165207069488e-04  4.4135164558020744e-04  5.7767258850846602e-04  3.0524196186095133e-04  6.2029255796576275e-05  9.1981174973224028e-02  4.3804176825702076e-02  4.8930116122262619e-02  5.0355003486768697e-02  1.3166814242765040e-02  3.7799696153692421e-02  5.1955310903136730e-02  4.2812594920005314e-03  1.1552705532347250e-02  1.4536201911127872e-01  3.0763176276249076e-03  3.5368971701411770e-03  1.6827875931877943e-04  2.5346928976834564e-04  5.2543974678614176e-04  3.8838867120344003e-04  4.3032964147843682e-02  1.6741723513132435e-04  5.0314257075180176e-02  5.3179535452709426e-02  5.3348748791125368e-02  5.2359364733945049e-02  5.4254120944438752e-02  4.9815989401445181e-02  5.3060763357237875e-02  5.7200557529356877e-02  5.1020901950500880e-02  4.7720163389554392e-02  4.3782121852265876e-02  5.2095707744865417e-02  3.0586214165177879e-02  2.9361440630801082e-04  1.3763375169633626e-03  1.3709194962313828e-03  1.0336108086741584e-03  6.1134076440432041e-02  3.5182640053455075e-04  6.7985991903229883e-04  5.0094708998148251e-04  8.9217491943496265e-04  3.9382900956789677e-04  1.2105416949339007e-03  2.9000396599622820e-03  2.3669898420364249e-03  4.0773253674339363e-03  1.9169163355979408e-03  5.6268124369701064e-02  1.1916461382657894e-03  1.1995373880635964e-02  6.6515184975573835e-02  5.1925665529600692e-03  2.8461785658116006e-02  1.6942395302066442e-03  4.7155293085158763e-02  7.3037879447289498e-04  2.1905277195110906e-04  2.4023909365628135e-04  4.3150290580217826e-02  3.1607351105441351e-03  3.9588319791189569e-02  7.9867607556157086e-02  6.9600168779455199e-02  9.7647493589210384e-03  4.6329646020636071e-02  3.2963176483647810e-04  8.0917024163519472e-04  3.5327538259104915e-03  3.4721802752169535e-03  5.3823190356385955e-02  7.6914647780214522e-03  5.0490624076746135e-02  2.7857588746981982e-02  3.3287871833236157e-02  6.0260720850372047e-02  5.3890497855391156e-02  6.5251789593245638e-02  4.8598584676275650e-03  3.0530276558375972e-04  4.0430712348396358e-04  3.7738139405654747e-04  4.0357491705661150e-02  3.6901344296399699e-02  5.3625894367116372e-02  2.2789633005396857e-02  4.4328921602798860e-02  5.3339100413427702e-03  4.9394781635787796e-02  4.3735350038159801e-02  3.4191404468310718e-02  6.5314501898001229e-03  9.6189034129720730e-03  3.8189751673423193e-02  4.4201302003714422e-02  4.7154641340463883e-02  4.8517231341220511e-02  1.3073320406988324e-02  6.1426052412607690e-01  1.3103230890102772e-03  6.7821949670421777e-04  6.9512528302743655e-04  5.6237965376708153e-03  2.2312653800084605e-04  4.9058465364835609e-02  2.3146827180211171e-02  5.0265014334961809e-04  4.4146648014122702e-04  2.3910801402000440e-04  8.2237377656545249e-02  5.2838395682800826e-02  6.9194066739780499e-02  6.0954561101208963e-04  4.3509283740517872e-04  4.4416677326393234e-04  4.4112461387519800e-04  4.4634598092456630e-03  5.2651240781951276e-02  4.6660477783482507e-02  5.1475525635887212e-02  5.5535792252649468e-04  5.2962695412636707e-02  9.6498974998677491e-04  4.9184519003199090e-02  4.9218024986208440e-02  3.1713067930207603e-02  1.9541072634104832e-03  6.6687706924554585e-02  3.6819262601023736e-02  1.4404029930926673e-03  4.2497608836737377e-06  4.3891328772271842e-06  3.2635946966171908e-06  3.8174289476259639e-04  8.9509559974550656e-04  2.1673224232830466e-04  1.7565055804965102e-04  3.2093375222843878e-06  1.2980266378271934e-02  1.0071861265544721e-01  1.2462744766323691e-01  4.3532899853811209e-02  7.4044590944640702e-04  2.3273152529114254e-02  3.8216660919904291e-02  3.0832996035395022e-02  3.2936029858239124e-02  5.0227643831143434e-02  4.9038053218617143e-02  5.5869240246263066e-02  5.2634452428245465e-02  2.0504780246150895e-02  5.1110993247663140e-02  4.2341969798297838e-02  3.5189934056711905e-02  6.3379638537521888e-04  1.5840080425355799e-03  3.7010908009847683e-03  2.4112625291644462e-03  2.2878647712049594e-03  1.4361595178705906e-03  6.1428051846611501e-02  5.2299494456180626e-03  2.5954102471829042e-04  2.9351181445893263e-04  2.5273317380618759e-04  5.7378469516515540e-02  2.8924831997281108e-04  2.3054129011512852e-04  2.0630765843370139e-04  1.9718252748051550e-02  2.6552929221078197e-02  3.1107963309947865e-02  1.5592259491956369e-04  5.8290229582075019e-02  7.4983051656705941e-05  3.6045494386933966e-03  3.3640127124084249e-02  1.5020210637738899e-04  3.8397221312150374e-04  5.1725385100348943e-02  3.9414743583778312e-02  2.9492047849660547e-02  3.7381404165516594e-02  3.8999443253946275e-04  3.1731121909035542e-04  5.6888659821366733e-02  5.5648262055351533e-02  5.0842606052569336e-02  4.4258849502856204e-02  5.5853869487770477e-02  6.2272259792468636e-02  4.5118611036279352e-05  4.6243003765813397e-05  2.9075415951653961e-02  3.2217563623783918e-02  4.1923254815186550e-02  2.1405475244933039e-02  3.6767311234538456e-03  7.8471220920258572e-03  1.8100213951900382e-02  2.8480885972126647e-02  4.3180786766343929e-04  2.7942866338109027e-02  3.2793584678194085e-04  1.3738882790536281e-02  4.7839748633792478e-02  1.3484584643661702e-03  4.1539203360427995e-05  1.8906183924625436e-04  4.0040324879986401e-05  1.7251803370333527e-04  4.5059255346079525e-04  6.2770161735530472e-04  1.0573109245233985e-03  1.2019632493405520e-03  9.0906455134354865e-03  5.0557934401644522e-02  4.9495900791917010e-04  2.4188597513711627e-04  4.2172984020708001e-02  4.9291024611263702e-02  3.7012776248377093e-04  4.1461131263299052e-04  3.2241565977140385e-04  2.2241857042554967e-04  2.9296387199765375e-02  2.2361081710814301e-02  3.3054513288646122e-02  4.2948805795433566e-02  5.9544011380276415e-02  3.2308669911547912e-02  3.0860590451545947e-02  5.2007123087450258e-02  4.4702627852119231e-02  4.2878078135931780e-02  1.5595985598214823e-02  4.8361682841707040e-02  2.4868139605360669e-02  3.6415941090198509e-02  4.6608405893323783e-03  4.6727547633757464e-02  1.7702642351520492e-03  4.0351942868351122e-02  8.9610414401977232e-03  5.1180950844341801e-02  3.3840045159309477e-04  4.0368094925481691e-02  7.4145944108981954e-02  5.6988985375971364e-02  9.0042769340696570e-03  7.1095404170547719e-03  3.1522607443376020e-04  2.8004689179829455e-04  2.4011204143746249e-02  4.6660201439102496e-02  4.9091080037412339e-02  2.4408769941426648e-04  5.8707663445113079e-02  5.1932831505004620e-02  3.6447820063810782e-02  3.3735055257825701e-04  2.3370787578000133e-04  3.4866050381026346e-04  1.9148468416034395e-04  3.6648038638968774e-04  8.8029408683325443e-05  3.7918761693621579e-02  4.2155796778794816e-02  3.4756237874176685e-02  4.1445998604968824e-05  3.6454479903034976e-04  3.7089050131342905e-04  4.1422959300513582e-05  2.1054444691268439e-04  1.2813910838345839e-04  6.0191615424409747e-02  6.9371804696661079e-04  1.6153172177417010e-04  4.1110474992791900e-04  4.1472857717916552e-04  1.9484904911351981e-04  5.2181069731265850e-02  5.4427430822378678e-02  5.2916836699666021e-02  2.9763414176459262e-02  2.6247612058675946e-02  5.1009574216079531e-02  6.5834099825519909e-04  4.7653801512384016e-03  3.9629175586195002e-04  3.9456721252174649e-02  3.1425418446754914e-02  7.2788450438813473e-03  5.1908380573315732e-02  1.0180295186865819e-02  4.8254398253522240e-03  5.5230911601312577e-02  4.1976767837480909e-02  3.2737173412971136e-04  2.7219319890478387e-04  5.1671784248220151e-02  1.0968858822450031e-03  5.0880478750736213e-04  5.1182761161361480e-02  4.8071086636028833e-02  4.6732034720738537e-02  4.3935036881237600e-02  1.6367425202736883e-04  5.1527675638947459e-02  3.3205645047674058e-02  2.7259564128542663e-02  1.950766136