<?xml version="1.0"?>
<VTKFile type="UnstructuredGrid"  version="0.1"  >
<UnstructuredGrid>
<Piece  NumberOfPoints="1515" NumberOfCells="2858">
<Points>
<DataArray  type="Float64"  NumberOfComponents="3"  format="ascii">-0.5 -0.0001 0  -0.5 -0.5 0  0.5 -0.5 0  0.5 0.5 0  -0.5 0.5 0  -0.5 0.0001 0  0 0.0001 0  0 -0.0001 0  0 -0.5 0  0 0.5 0  0.5 0 0  -0.25 0.0001 0  -0.25 0.5 0  -0.25 -0.0001 0  0.25 0.5 0  0.25 -0.5 0  0.2500374937493749 0.1875187468746875 0  0.5 -0.25 0  0.25002499 -0.125 0  -0.125 -0.25005 0  -0.125 0.25005 0  0.5 0.25 0  -0.25 -0.5 0  -0.5 -0.25005 0  -0.5 0.25005 0  0.125 -0.3124916691673332 0  0.125 0.3437443727884549 0  0.3187498332767468 -0.3187498332767468 0  -0.3125 -0.3125124974994999 0  -0.3125 0.1875875025005001 0  0.04436566007004419 0.1785185187387698 0  0.3437706224620182 0.3437706224620182 0  -0.359407810625422 0.3594296915637348 0  -0.359407810625422 -0.1406703084362652 0  0.08209948494863104 -0.1484533219292508 0  0.3281296842191969 0.03125624875007487 0  0.1612337437527647 0.0454945319044936 0  0.5 -0.125 0  0.3736573308633327 -0.1902100573489204 0  -0.05632383965282133 -0.1281636979131719 0  -0.1875249975 -0.37501249874975 0  -0.02161822989173764 0.354580025951059 0  -0.2160757009003203 -0.1393657085918785 0  -0.01783801249259284 -0.3526895391541273 0  -0.2160757009003203 0.3607342914081215 0  -0.125 0.0001 0  -0.125 -0.0001 0  -0.1875249975 0.1250875012502501 0  0.5 0.125 0  -0.375 0.0001 0  -0.375 -0.0001 0  -0.5 0.125075 0  -0.375 -0.5 0  -0.5 -0.375025 0  0.3828324180271084 0.1875 0  -0.125 0.5 0  0.5 -0.375 0  0.375 -0.5 0  -0.125 -0.5 0  -0.375 0.5 0  0.125 0.5 0  0.125 -0.5 0  0.5 0.375 0  0.375 0.5 0  -0.5 -0.125075 0  -0.5 0.375025 0  -0.06200365993838185 0.1102431244359298 0  0.3921286730834987 -0.07100003899567721 0  -0.001178265146973292 -0.2342725669761844 0  0.219639755882476 -0.3848202826230195 0  0.1764909845376315 -0.2113963654501196 0  0.2343901841136658 0.3031458088961128 0  0.1561195030924493 -0.06553680147678266 0  0.1485501800845649 0.1522005597879607 0  0.07430925316253632 -0.4062458345836666 0  0.1875 0.4218721863942274 0  0.0625 0.4218721863942275 0  0.2776974776570886 -0.2252166395728846 0  -0.2310132101974821 0.2556304703469177 0  -0.2310132101974821 -0.2444695296530824 0  -0.3906265628125469 -0.3906296862497968 0  -0.3906265628125469 0.1094703137502032 0  -0.2812687506255001 0.09383750062512503 0  -0.2812687506255002 -0.406262499374875 0  -0.4101472686723712 0.2071199254696213 0  -0.4101472686723712 -0.2929800745303787 0  0.2470275540227946 -0.02585328932041452 0  0.4068247800249947 0.09140209453477602 0  -0.1176406316218027 0.3957739114529177 0  0.4080574838155757 -0.2809016730332933 0  0.3125 -0.4219344228213859 0  0.4088486496673779 -0.4088486496673779 0  0.1167033063099591 0.2455046542815969 0  -0.02381261413756171 0.2533622281544139 0  0.02735543470987723 0.08802303626707711 0  0.3144655814479235 0.2551097933485553 0  0.2801337679615206 0.4118308473117793 0  0.4101587089138863 0.2773478512831281 0  -0.09689860681079282 -0.4078094624324944 0  0.213976519574722 -0.2941495474331945 0  -0.318965898965983 0.2781458178971435 0  -0.3125 0.4357826538464097 0  -0.318965898965983 -0.2219541821028565 0  -0.3125 -0.06431734615359029 0  -0.4357704230694522 0.3125375 0  -0.4357704230694522 -0.1875625 0  0.4114732283419867 0.4114732283419867 0  -0.4234646583494089 0.4234743507195528 0  -0.4375 -0.0001 0  -0.4375 0.0001 0  0.3164258563077259 0.1230517971377134 0  0.04931026741366369 0.300666438050672 0  0.2304865209107167 0.1009680687096636 0  0.02061587644269779 -0.08558486663800556 0  0.09390691211100699 -0.2329943594667239 0  0.08896107880644889 -0.006809950500825342 0  -0.1875 0.5 0  -0.1392552316473008 -0.09019077220175532 0  0.4170297537744737 0.008612617817243748 0  -0.4243694331702185 -0.08478222235936261 0  -0.1416933693607303 -0.1709733993077484 0  -0.09511425322415427 -0.3261090638251909 0  -0.04508670308176045 0.4323857419859515 0  -0.4375 -0.5 0  -0.1187189609291948 0.1687838380963837 0  0.3117722643778845 -0.07351457101062323 0  0.1513445599038777 -0.4251753449096755 0  0.04472177709904164 -0.3011105058468416 0  0.001740722226491711 -0.4250539693950984 0  -0.03075788851996441 0.178560406845558 0  0.1766313586052732 -0.1370243862559475 0  -0.0761550533906552 0.3051296889632589 0  -0.1485469487091727 0.3268133048125818 0  0.1930083860569673 0.2386735170085497 0  -0.0625 -0.0001 0  -0.0625 0.0001 0  -0.2878141094770303 -0.1320687430427478 0  -0.2875995151119595 0.3444544772933048 0  -0.24076159142329 -0.07161431170272106 0  -0.24076159142329 0.428485688297279 0  0.4263700347703773 -0.1373417231816959 0  -0.1856875708107399 0.19821478019016 0  0.09322297310683496 0.06338537237428626 0  -0.07466041728962823 -0.1981228067401687 0  0.009513123991135172 -0.1613319531958586 0  0.3092144166352111 -0.1625850961304104 0  0.3437404121717113 -0.2534277690952264 0  0.4379744025071972 -0.2176839612869874 0  -0.1297061011176702 0.07587858854060507 0  -0.1875 0.0001 0  -0.1875 -0.0001 0  -0.1875 -0.5 0  -0.1633110600051376 -0.3090045011162743 0  -0.21877499875025 0.06259999875025002 0  -0.21875 -0.4375124968750625 0  -0.25001874937525 -0.3437749968748749 0  -0.2500187493752501 0.1563250031251251 0  -0.5 -0.4375125 0  -0.5 0.06258749999999999 0  0.08904799960830578 -0.08015900599685086 0  0.4108334826406196 0.3444103681633853 0  -0.0625 -0.5 0  0.4414087098136942 0.2187640586098291 0  0.4382361660678968 0.150288432919798 0  -0.3125 0.0001 0  -0.3125 -0.0001 0  -0.3416336343815852 0.06187820768002609 0  -0.3125 -0.5 0  -0.3416336343815852 -0.4382217923199739 0  0.3168016282179152 0.1891009224226147 0  0.4368875345166075 -0.3446993355472595 0  -0.05975660640830217 -0.2683150418715617 0  0.3458703977041003 0.4362216268226822 0  0.5 0.0625 0  0.5 0.3125 0  0.5 -0.0625 0  0.5 -0.4375 0  0.4375 -0.5 0  -0.04197328552084911 -0.06329083152961786 0  0.2257906778195176 0.03586621568734723 0  0.2286857476565217 0.36951555023185 0  0.3548787707540964 -0.3727197121900284 0  -0.1790795964032311 0.4125871598709088 0  -0.0278086253378118 0.05696913583040467 0  -0.2640893654172825 -0.190631969293494 0  -0.1533594275423699 -0.440977335357388 0  0.5 0.4375 0  0.4375 0.5 0  0.1704903431553385 0.2986434949108457 0  0.08721475273820462 0.1287687476127682 0  0.1875 -0.5 0  -0.0625 0.5 0  -0.4375 0.5 0  -0.3125 0.5 0  0.0625 0.5 0  0.125 0.4359369935185367 0  0.3125 -0.5 0  0.1875 0.5 0  0.0625 -0.5 0  0.5 -0.3125 0  0.5 -0.1875 0  0.5 0.1875 0  0.3125 0.5 0  -0.5 -0.1875625 0  -0.5 -0.3125375 0  -0.5 0.1875625 0  -0.5 0.3125375 0  -0.5 0.4375125 0  -0.5 -0.06258749999999999 0  0.3624254104606854 -0.1274336378120225 0  0.1857642697873453 -0.01126882530927889 0  0.03669184495608396 0.2400031982312926 0  0.04068015303098439 0.3629261100764373 0  -0.3851162339112683 0.269026866774594 0  -0.3758332300807991 -0.1995452526923809 0  -0.446144648587372 -0.34378125 0  -0.446144648587372 0.15631875 0  0.3504998016039519 -0.02589861883840036 0  0.2836777321248879 0.07223256202683162 0  0.21875 -0.4466460035652602 0  0.1774501368185094 -0.3419431906700547 0  0.2592287652038449 -0.3368353496836486 0  -0.4486577479325732 0.09383124999999998 0  -0.40625 0.05134972627205531 0  -0.4486577479325732 -0.40626875 0  -0.40625 -0.4487502737279447 0  -0.07907884158578801 0.2127234227389962 0  0.2826672956396865 0.340725212476292 0  0.2552094419670018 0.2470909165729528 0  0.1235030570827048 -0.3722630563328095 0  -0.1765523267242401 -0.2196325740312749 0  -0.3653881707177284 -0.256399556620603 0  -0.3667881364584723 -0.08355066867835562 0  0.1448027058369495 -0.2589171712236736 0  0.2204190758351349 -0.1742931558527921 0  0.125595190811689 -0.1854735536931699 0  0.2751135960266025 -0.2821263988783404 0  0.04714559827497029 0.03095590907283807 0  -0.3694518448121097 0.4428768192088114 0  -0.4163493718954405 0.3665341424253254 0  0.2065677312659464 -0.0897482605048449 0  0.04596501084766122 -0.2039288085874983 0  -0.3678348759016452 -0.3352975447880205 0  -0.3331464162279717 -0.3812640910313448 0  -0.3678348759016452 0.1648024552119795 0  -0.3331464162279716 0.1188359089686553 0  0.006928352547084439 0.4089314103168539 0  -0.008754979675293741 -0.28865535545956 0  0.454824000777391 -0.03125 0  0.4453084397952883 -0.08555947234219879 0  0.0400389030608287 -0.3591593324500765 0  -0.3565047668221014 0.2214443888382642 0  -0.1767790649240408 0.276160039146296 0  -0.4407450517553578 0.2555055370068006 0  -0.4424041217249974 -0.2449977221857678 0  -0.0101841459589043 0.1278467808234489 0  0.1946666826231925 0.1831558471035277 0  0.1023041143695485 0.1885027832887665 0  0.1383943178482503 0.09688656085697314 0  0.1738321521953076 0.3687430643819201 0  0.09375 -0.4563154147117792 0  -0.2831024225358643 0.2351964925231401 0  -0.2621637468582121 -0.2899792135739121 0  -0.2423367266168128 0.3108531660207947 0  0.3858515397252176 -0.3293494555229365 0  -0.09921103529049136 0.4494480844437962 0  -0.1387217209722605 -0.3554699308920083 0  -0.06600083182100508 0.3836351847814501 0  0.1309954671830858 -0.1114321286398948 0  -0.09375 -0.04518048647049126 0  0.04208778762923838 -0.03517827620526504 0  -0.08165643227347709 0.05080163226699017 0  0.2987692351119484 -0.01319048554596328 0  -0.4136288823076366 -0.1379960981994732 0  -0.1856470434007142 -0.05707095126749213 0  -0.15625 0.4588983004055426 0  0.301492156088943 -0.3696020442065089 0  0.2261014656445051 -0.2255765688706129 0  -0.0254711816102797 0.3040308714413081 0  -0.2359814035109398 0.2051098885755096 0  -0.2142660728025848 -0.3074346058732286 0  -0.0444842016587006 -0.3987296650352232 0  -0.06299926340697812 -0.4476735265309565 0  0.2370119789310965 0.4463270361850639 0  0.1025408210352734 0.3898406831534957 0  0.02523186154102609 0.456121755814222 0  0.2703582881149408 -0.4522472093634566 0  0.34375 -0.460967211410693 0  0.1519529867048281 0.2096636028655708 0  -0.1028373102819492 0.3477334553616848 0  0.2543545123482477 -0.07525044338081299 0  0.4586232703312498 
[...]
<PointData  Scalars="f_184501"> 
<DataArray  type="Float64"  Name="f_184501"  format="ascii">1.1436764693596805e-06  1.3847979330306050e-04  1.5695465256886418e-01  7.1028083231080577e-02  1.3613986316771472e-03  2.6927130563363501e-07  9.9668467912948744e-01  9.8315750609615193e-01  1.0253789966772665e-02  1.4192765642568534e-02  2.9839743369094004e-02  8.6193017308960906e-04  4.3905849768594555e-04  9.0436587384634518e-04  4.6982154543462565e-02  3.1104384385320948e-02  6.2992754931167003e-02  4.7687598660592891e-02  6.5235999491406391e-02  1.8753717512288498e-03  1.9858566392242519e-03  5.2279947789787548e-02  1.2419369442708637e-03  4.7784415170811526e-04  5.5548772377822097e-04  3.1685305837829109e-02  3.5807638428945888e-02  5.6642651640076001e-02  1.6196241478017855e-04  4.6311692492007653e-04  3.1933779681860126e-02  5.6547717384315015e-02  2.3415412353321364e-04  3.7692257720935173e-04  4.8822308188359469e-02  4.5475621554205238e-02  8.6741322889675856e-02  3.5519457881605147e-02  5.4557822432823880e-02  3.9521342072269955e-03  1.3463146508468377e-03  1.1959561492238202e-02  2.6341235437158251e-04  9.7828659175057762e-03  6.5287931833195876e-04  2.3597662496927518e-03  2.5876896522210951e-03  2.7617609306922897e-04  3.6504564578284868e-02  9.3313793800424189e-05  9.8383096726525657e-05  7.9852548226434376e-05  3.4681997751038476e-04  5.9286178881825440e-04  5.1993236747967103e-02  3.9698920913020901e-03  6.1870899547961662e-02  5.0435318578961351e-02  4.0833676357952117e-03  1.8647356290378781e-04  3.1105053746242173e-02  1.9376105845912962e-02  6.6284888023243602e-02  5.7799883073475382e-02  8.4677390622462384e-05  1.1972820303806355e-03  2.5554742850614305e-03  4.3927835601807644e-02  1.3595322435405831e-02  3.7501704092800979e-02  5.6336497504135954e-02  5.3542235495954681e-02  8.6621642614352928e-02  7.1806639182700124e-02  1.8038752589901900e-02  4.1125824768458601e-02  2.2966133469050208e-02  6.0504126197089766e-02  3.0506328253935872e-04  3.0043502282268671e-04  2.4017958023152931e-04  2.9503366666799478e-04  5.0471294247150388e-04  4.3901921414102768e-04  4.0360515872022915e-04  2.5230678954273414e-04  5.4784901107695641e-02  4.2756490138453139e-02  3.9141962041333318e-03  5.7137104651851553e-02  4.6069674532706738e-02  6.6068171757552335e-02  4.4109470004828691e-02  1.1250196905283928e-02  3.8544982738895013e-02  5.7942446673994487e-02  5.0926567985239209e-02  5.5841015878575075e-02  4.4207035040063208e-03  4.7673569556828062e-02  2.9869571189021683e-04  7.1649206286525111e-05  2.8398743833809480e-04  3.7970412647604515e-04  5.1562911225792288e-04  2.6351109698035134e-04  6.0479660213921441e-02  5.2324404550919566e-04  1.3515946026236076e-05  1.1064803992315455e-05  5.3504022599070784e-02  2.4096375482467930e-02  6.4099904699399357e-02  2.7140704730007979e-02  3.4879192631938526e-02  3.1367803897178570e-01  1.5531401182812192e-03  3.3023193777563048e-04  3.8649143266444773e-02  1.3097792273446764e-04  5.9112778557274953e-04  4.0461353591411137e-03  9.6108313703392803e-03  2.1485349173339162e-04  1.0819502030251140e-03  5.2032024152906878e-02  2.4848500239714251e-02  1.8706724093904996e-02  1.0642161053783164e-02  9.2085961444515578e-03  7.1422866669381441e-02  5.8620132764926553e-03  1.9533527970228633e-03  5.7635637001724208e-02  6.8142519848977392e-03  8.4739927805978273e-03  4.1835968722284919e-04  1.7053328181478744e-04  5.2080349911004888e-04  4.9252988544508120e-04  4.4739792757990837e-02  3.3119195025690056e-04  1.6194424749095204e-01  4.0094122686932104e-03  1.8207339493905066e-02  5.9353338704065894e-02  5.8810021549741874e-02  4.9668000389718116e-02  5.4085420573446788e-04  1.5819728776957495e-03  1.7006898203273738e-03  2.3908760267610510e-03  1.4121838196803056e-03  6.3605433369865697e-04  1.2752879199979155e-03  4.2803184354660962e-04  3.9191909395171242e-04  3.7707938130239390e-04  1.0855456898733286e-05  8.4975153509773194e-02  5.8708465961983862e-02  6.7960002587732181e-03  5.0113539339865391e-02  4.4306686524018146e-02  3.4622228617001231e-04  3.6688102765117486e-04  3.0300086973725378e-04  6.3219486410490480e-04  3.2826877656747064e-04  5.7614259735397640e-02  6.1415703308467490e-02  6.1099099440628610e-03  5.5621144592896785e-02  3.1548353310956533e-02  6.0211344759131015e-02  3.1349338425095921e-02  8.6711511483875792e-02  7.7081069028346105e-02  4.1223359960523261e-03  5.6913882504909488e-02  4.8062824844819871e-02  5.7144972557121997e-02  1.5972771512661650e-03  4.9906230910468294e-03  2.9645228648507232e-04  2.7410782311646912e-03  6.9979781916843398e-02  6.4363926770866317e-02  4.6935345697253057e-02  6.5193811849505429e-02  2.5137551258089332e-02  8.0932169248402012e-03  6.8764352818765295e-04  5.7102208060617803e-05  2.2458397443396633e-02  3.2302354555332757e-02  3.8498370984037321e-02  4.0020134115241024e-02  1.4538315808611630e-02  5.4594597043538057e-02  4.1651166005397408e-02  4.4013215651395085e-02  5.2412687554540260e-02  2.6269623060537977e-04  6.1763909195786419e-04  2.6337668049352178e-04  9.1138964804046599e-04  1.4137989654991487e-03  1.2538323219584938e-05  5.1176901985329461e-02  7.0471025415277444e-02  2.4242378869353935e-02  2.0861868474503557e-02  4.0253718593981976e-04  3.2874922285624727e-04  3.5691385597351542e-04  2.2605998761258885e-04  4.4536787060375504e-02  5.1739112766922279e-02  3.0699445018611271e-02  3.6491030350962753e-02  4.8349535040729426e-02  9.9190337170969181e-05  1.0196448129404058e-04  3.6042568514082753e-04  3.0110773715074409e-04  3.9038598760442831e-03  5.4004719961872352e-02  5.9063077779024753e-02  2.6006779270242617e-02  5.1823082315587143e-04  2.3893740868125634e-04  2.8073120033334073e-04  4.2130406876958224e-02  6.5349235352437599e-02  5.2356026100233578e-02  5.6033190679062317e-02  7.2690041427032726e-01  1.7872074670040826e-04  4.5495417917524824e-04  7.1667013289790221e-02  2.6227329877159120e-02  1.7428611207273914e-04  1.9982707982577516e-04  4.4363217228349006e-04  4.6295913407952161e-04  1.5269167557025360e-02  1.1429471363246679e-02  3.4806721401139822e-02  3.8560383279184415e-02  1.5693170783760601e-02  4.5203995979639742e-04  8.5229781170564347e-04  4.4642376765172056e-04  3.1501889648924360e-04  1.2607711204200319e-02  6.5781157476869440e-02  5.1067040858104394e-02  9.1861995377738218e-02  4.1555959684988243e-02  1.7649256986705390e-02  3.3786940116274156e-04  2.5165663957636323e-04  3.3177661975265278e-04  6.0185954983546869e-02  5.3256769292312819e-03  2.4168620551529695e-03  7.3294599722380782e-03  7.6861776148459515e-02  1.4002959137639653e-03  1.2449588349501221e-01  1.2889302850542844e-03  4.7972624490871814e-02  2.5162824817426293e-04  7.3975932525320641e-04  2.5447012270431307e-03  5.0297037620839681e-02  5.8962354908379075e-02  1.1286363435768885e-02  2.9369947683812023e-04  5.7889730585258250e-04  7.3209151853798303e-03  6.4287383694682553e-03  4.5939021110843400e-02  2.9981493724186150e-02  1.7611760446029755e-02  3.6240230369458344e-02  4.6570425321236071e-02  5.7727227921526104e-02  4.3926943351974062e-03  5.9883016895585527e-02  3.7542311919928135e-02  4.6757171572033990e-02  4.8074896293318271e-02  3.4105664818524818e-02  8.1050871158415080e-04  5.6239219846853543e-04  7.6454629002800309e-04  4.4856080806911333e-04  3.9021683645411968e-02  5.5772981833691025e-02  5.6976968123935316e-02  7.7303863985308334e-05  7.1795808741441480e-02  6.3726513715954156e-02  5.3660234876801244e-02  2.1631720454137773e-02  5.9221456968791400e-02  1.3907226076527729e-02  4.1984093117715823e-02  5.5227396641325435e-02  2.2726254790580339e-02  1.1967211645713924e-01  2.6065363191587118e-05  7.1482552869756952e-02  5.6023903263688959e-02  8.8524781417353260e-02  2.6861778858173211e-04  6.0793740375773057e-02  6.5134784896082751e-02  6.2574445109956953e-02  5.7287686676938940e-02  6.8720813189085286e-04  1.6658188276263532e-03  1.1995261479820093e-03  3.8733500386886404e-04  6.0123842266064140e-02  1.1409103357092771e-04  3.0545053462581570e-04  2.3544884282834742e-05  7.1352245791539912e-03  2.9093936341090612e-04  5.2074478891833954e-02  6.9312480742855949e-04  5.6749069827540272e-02  8.0082607635634739e-04  5.4466449962402831e-02  5.9494717885754680e-02  4.9343944788650430e-03  2.5884317434262804e-04  7.6016591805350794e-02  3.6835637068875104e-02  3.9787574263942230e-04  3.2235542350433287e-04  9.6012740219395664e-03  1.7801272669269997e-02  2.1451843253660494e-04  8.8083018030657195e-04  1.1085019700391309e-03  2.3102186576459194e-04  4.9377230185945319e-04  1.6258969575844342e-03  5.0195733751704052e-02  1.9707033382733598e-04  2.2718547397635496e-04  4.3779799601184090e-03  9.3279515652334674e-04  4.9837188552138371e-04  1.1316899609420175e-03  1.7488377256383688e-04  7.6472086430703456e-04  1.6507894351810274e-04  5.1799075912178634e-04  2.2828978556396084e-04  4.0397363589498935e-04  2.6436561247238820e-04  6.3528131249909275e-02  3.5957656236527226e-02  2.5973540368244542e-02  4.7740772248166356e-02  4.0899808336383410e-02  1.1940391021149445e-01  5.5527806496021043e-02  1.7110478635830099e-02  4.4177629074498570e-02  5.3072578508752882e-02  5.5213086183588250e-02  3.9995405222337439e-04  6.5312239200279038e-02  3.6128573481791562e-02  5.2380832455597133e-03  3.4395011470746899e-03  1.0651797905814860e-03  9.0989314813047398e-04  4.1437782145663654e-02  9.1437435352075859e-03  4.5969327232834513e-02  4.9801114456028556e-02  3.8368772748416559e-04  3.1505833021935221e-02  1.7627303157730548e-02  3.2048619930668827e-02  2.8089613726944108e-02  5.8994214578543036e-02  2.7598674357485627e-03  8.9024099008889893e-04  2.5586088406505760e-04  6.2077365440788669e-05  3.1560868957269415e-02  5.6684117542487339e-02  5.9764093724788456e-02  5.8064811215125106e-02  3.9867975347819516e-02  3.5184754915419732e-02  2.5529572718052600e-02  4.9423943870000583e-02  3.6537856237110838e-02  6.3371222876554126e-02  1.7252712481870077e-04  7.0127203405710194e-04  2.7783607261320451e-04  7.7592880164615704e-03  3.7511105683348239e-04  4.3329872367599942e-02  8.3933416225779496e-03  9.2020182697666666e-03  3.8872494152743992e-02  3.4058281221079696e-03  4.2848678030753096e-02  3.2254613374406048e-04  9.4722746646835464e-04  3.6760040251021737e-04  1.0855017525202860e-02  6.7236041896298962e-02  3.8713243067666867e-02  1.3680910426766512e-02  1.1503036426345188e-03  7.3904621748119192e-05  2.8144533883685507e-04  4.7362566412602398e-02  2.0076986393228686e-03  1.4194399271198146e-01  2.1138509761244300e-02  2.1351324178841540e-02  7.5219908756765782e-03  2.3772701372429351e-04  3.6232295882264974e-04  6.8355341874260164e-02  4.0125918168292782e-04  4.3110570140866838e-04  4.1640727722354998e-02  1.1756030624776290e-04  2.7630274476009168e-04  1.8817656569179250e-04  4.6935472917107541e-04  4.2513708490428691e-04  4.7746020488126886e-02  1.1199300167081490e-02  5.8023006023374513e-02  7.0958268390662146e-02  2.6596040289709951e-04  6.2137884304566127e-02  5.5735728641564813e-02  5.1167562405271996e-02  4.1159248970191748e-04  4.6093214427487958e-04  3.3006824576751402e-04  4.9411184582666363e-02  1.9874755704494946e-02  5.2877658216523730e-02  5.2294100626464959e-02  1.1750984922656142e-02  4.6770388220306004e-04  1.4561752157054200e-01  1.2979177145551364e-03  4.7464873768577810e-02  5.4255595114451743e-02  6.9176350448307028e-02  8.1446233765586806e-04  5.3097099716347702e-03  1.8774965407618093e-02  8.7143069085716344e-03  1.4568819780546457e-04  5.7408380646432208e-02  3.7844439583140262e-04  4.3521846697838984e-02  3.8910118774315633e-02  1.2980946655422981e-01  5.9180674007976067e-02  7.8452341081238566e-02  6.8620274627015074e-02  6.2601075229183858e-02  1.6756809035585801e-03  2.9807251553991290e-02  6.1995304129114089e-02  1.3564898895821260e-02  3.3903105054088997e-03  3.9780626938045183e-02  3.0677219448953862e-02  8.6509405338539239e-03  6.0537554597999907e-03  1.6631902017792452e-02  2.1084249818075862e-04  3.0253070694157182e-04  5.7177309380827261e-02  1.2861549351940473e-02  1.0552211508417224e-03  2.1786304982797565e-04  3.0775909392910446e-04  2.0436812588017555e-03  6.0665027546160377e-02  3.6590315617810914e-03  1.3850771417578966e-02  5.7283344432378577e-02  3.1569185001906280e-02  3.0754021029186143e-04  1.0155798039707667e-01  6.1857604754822081e-04  4.4700371446482749e-04  4.5838734782283591e-02  4.8787187670938606e-02  5.5026624208231706e-02  2.5642364164246283e-04  4.2088212980651089e-04  1.5802752076720300e-04  4.9119207842342129e-04  5.8298791799092154e-04  2.9090484448581139e-04  6.1447540243632676e-05  6.1351590912519086e-02  4.9689583587867396e-02  5.1324556284547414e-02  5.6957253705943109e-02  1.1673968381438648e-02  4.0409306446355098e-02  5.7476213136565937e-02  2.8080580723297897e-03  8.0032399137744178e-03  3.9319540427720656e-01  1.9671139301795323e-03  2.3855058896140721e-03  1.4932408965077972e-04  2.3505750303451573e-04  3.4145863872573262e-04  2.7355845585593029e-04  4.2335477014907183e-02  1.5069085909924398e-04  5.3477132947911586e-02  5.7536532787477231e-02  5.7941867060991269e-02  6.1175754932384807e-02  6.1300934769433262e-02  5.6817690254321367e-02  5.9110309442820530e-02  6.3880406351148833e-02  5.7371859054235766e-02  5.3773652619205428e-02  4.9874821933161000e-02  5.7987356630582201e-02  3.3459488419174767e-02  3.8524486951304460e-04  1.2136630979805224e-03  1.2335633715094890e-03  1.0010031665617170e-03  6.8025010036873126e-02  2.3190083620493448e-04  4.1611725231419815e-04  5.4501173649839621e-04  8.2019584044721206e-04  4.8114361155155084e-04  7.6560321080515004e-04  2.1351929685611299e-03  1.7076400744398033e-03  3.1422028737402180e-03  1.3420560961717647e-03  6.2378338660738303e-02  7.7290926836673444e-04  9.3141667521134518e-03  9.6600933989890655e-02  3.3524806521966592e-03  2.5279835864341540e-02  8.9151328789865904e-04  4.8762534925353589e-02  4.6302932416979030e-04  1.8469426812302203e-04  2.0225000738142060e-04  4.8141148362263041e-02  1.6588302277777652e-03  4.5096357061298727e-02  9.3015683543394082e-02  6.3907744177940359e-02  8.1027736448010864e-03  5.3795009528830769e-02  2.9584972202213760e-04  5.1444391425079124e-04  2.8774128030672713e-03  3.2315675235588775e-03  5.8412689980405282e-02  4.1826325486913488e-03  5.7483756232969210e-02  2.4608277703998281e-02  3.4150562602314291e-02  6.6444316319306501e-02  5.9113352601268057e-02  7.9911859475818761e-02  3.5665057602157616e-03  4.3361904630349695e-04  4.5153940140285306e-04  4.3037068815246195e-04  4.4002116886332009e-02  3.9478261685066400e-02  5.8612413381691320e-02  2.2093764325489859e-02  4.6034541970074776e-02  4.3179290681797577e-03  5.1909813651421222e-02  4.3858739902557911e-02  3.8545854000653038e-02  5.3402524009376912e-03  7.5119835745051811e-03  4.1949983026967383e-02  4.8219927621053850e-02  5.1876813185322945e-02  5.3643215302528718e-02  9.5335955179681638e-03  8.9935177536329647e-01  8.7545482077707642e-04  5.8762931304118704e-04  6.0379761472631813e-04  3.5084854963446334e-03  3.3469165419173472e-04  5.5117583518026640e-02  2.0939341942588372e-02  3.0673257199253899e-04  4.4807399659305044e-04  3.4171621646652265e-04  9.1228162882422928e-02  4.5026114476907214e-02  7.7961640252013187e-02  5.7490686167923786e-04  4.2143705106109555e-04  4.0856290229606139e-04  4.2545097425799802e-04  3.4647549480475420e-03  6.4667590034516331e-02  5.6875232105100815e-02  6.6741874004331084e-02  3.5432536641555860e-04  6.0457023106664398e-02  4.0369764807967419e-04  5.2387302327697657e-02  5.6002415216836438e-02  2.7580377189686402e-02  1.1677259077353974e-03  7.2484086110904775e-02  3.4881979526679457e-02  8.6675325110502333e-04  3.3792619254007862e-06  3.4749704973338642e-06  2.5835467051033463e-06  4.1488797307057346e-04  5.7286909925912885e-04  1.7019300580852628e-04  2.3096889444525995e-04  2.5574871312351195e-06  1.0144795089214865e-02  1.0867149972416440e-01  1.3455386658370388e-01  4.3764957244417688e-02  7.5134846110619835e-04  1.9853640160958266e-02  3.6870499759764391e-02  2.8101459943981968e-02  3.0656857071186712e-02  5.2226760338401297e-02  5.0848009600723595e-02  6.0583216136996229e-02  5.7494827348918948e-02  1.6486571266625085e-02  5.4524104845710762e-02  4.8016459697280738e-02  3.5753335659712240e-02  6.8970494119442976e-04  9.6236119653728559e-04  2.4357698553101447e-03  2.2163933031447746e-03  1.9961233423050708e-03  1.4011490587733575e-03  6.4526542726650829e-02  2.1021976532145880e-03  3.2676486764897275e-04  3.6602280708040823e-04  2.5194596637334436e-04  6.3520870643889449e-02  3.4488752763869423e-04  2.8626727837636134e-04  1.8486905222924745e-04  1.6004052133472918e-02  2.2640944477741773e-02  3.3017452294683246e-02  1.3520875650907080e-04  7.8481792721838403e-02  1.3061747530081623e-04  1.8110485322853362e-03  3.5709038664448522e-02  1.3649986390861478e-04  4.1078341999126037e-04  5.5279395333409587e-02  4.5267212743719157e-02  2.6778458306543403e-02  3.5956691530281720e-02  3.5115636913723330e-04  1.5906374410390168e-04  6.3453579406152733e-02  6.0899646838456195e-02  5.6293739621311699e-02  5.0961106773052482e-02  5.9772214301078340e-02  6.9268529587322561e-02  3.6650128576369668e-05  3.7968899347418416e-05  3.0234927843714846e-02  3.3703305951760514e-02  4.4071403183332886e-02  1.8237793336814714e-02  2.4711604439181306e-03  5.7655078362587407e-03  1.6933131824014045e-02  3.0109027644278519e-02  2.7814965459703320e-04  2.7939786641005188e-02  4.1034973180272748e-04  1.2339619227888085e-02  4.9772648172304187e-02  1.4048285016535244e-03  3.4061850672556273e-05  1.6162519293975427e-04  3.3459378915741062e-05  1.5058393017352637e-04  5.0984841351929078e-04  6.3453724010742506e-04  1.0571887860696878e-03  1.2373534817533237e-03  6.7982446643029201e-03  5.3074452221517812e-02  5.0334318341867051e-04  2.2341441204630505e-04  4.3087762887588824e-02  5.2162639431493692e-02  3.6157415513030197e-04  4.2104660848605815e-04  2.2716713629394921e-04  1.8127035549512526e-04  2.4458405162606132e-02  1.6802175345111532e-02  2.6064640898092111e-02  4.8168209844774011e-02  6.6027444357450046e-02  3.0996561499538351e-02  3.1189905288864027e-02  5.4482666758994130e-02  5.1372848314760258e-02  4.8987259382108538e-02  1.2584301597850119e-02  5.5597083275722027e-02  2.1740782244366687e-02  4.0155750174850735e-02  3.5378648047694390e-03  5.2791679257043846e-02  1.0774614800283778e-03  4.4737531325540217e-02  7.5636064666624739e-03  5.5064165660925868e-02  3.6075430076193377e-04  4.4309426106700009e-02  1.0795299878325955e-01  6.3440157152951676e-02  6.9016809836999248e-03  5.8377823363307954e-03  3.8970150481448015e-04  2.9825618997999739e-04  1.0518975210129547e-02  5.3123112848557343e-02  5.7465962539292634e-02  2.3257483532684105e-04  6.2590236931615723e-02  5.7322282560894465e-02  3.3814691222517776e-02  3.3073420293212521e-04  2.3148138377152456e-04  2.8547678364461302e-04  1.7501121395276404e-04  3.2348788817182337e-04  7.7025229258517676e-05  3.7748001235453854e-02  4.2038497892070682e-02  3.3173365445434387e-02  3.5191699958894207e-05  4.0744330963482148e-04  2.7015947467277907e-04  3.4736746441729920e-05  2.5360038939894715e-04  1.1259903722829048e-04  6.7066049483880369e-02  4.1693144265499859e-04  1.9771651521547769e-04  4.4936445625940580e-04  4.7665464049936884e-04  1.7410840862421519e-04  5.6404883870251186e-02  6.0934514758355457e-02  5.8608739616671082e-02  2.7549248735089012e-02  2.4773301553524141e-02  5.4574687809330738e-02  6.3485288695532298e-04  1.9685591156076315e-03  2.0753067840923714e-04  4.3921005056790315e-02  3.4216775685314192e-02  5.1447643829220721e-03  5.7269641517363169e-02  5.6492465226163774e-03  2.6754666978988958e-03  7.1436770332076543e-02  4.6232928357934196e-02  3.2722062994535166e-04  2.9934064287336911e-04  5.5587598788372786e-02  7.1610497445868720e-04  4.5863663224701782e-04  5.4803723520752905e-02  4.2414632315614022e-02  4.4064672119793848e-02  4.7961893241508159e-02  2.4653003675867842e-04  5.5082341404716899e-02  3.0373820776073663e-02  2.7041122805532745e-02  1.717448960