<?xml version="1.0"?>
<VTKFile type="UnstructuredGrid"  version="0.1"  >
<UnstructuredGrid>
<Piece  NumberOfPoints="1515" NumberOfCells="2858">
<Points>
<DataArray  type="Float64"  NumberOfComponents="3"  format="ascii">-0.5 -0.0001 0  -0.5 -0.5 0  0.5 -0.5 0  0.5 0.5 0  -0.5 0.5 0  -0.5 0.0001 0  0 0.0001 0  0 -0.0001 0  0 -0.5 0  0 0.5 0  0.5 0 0  -0.25 0.0001 0  -0.25 0.5 0  -0.25 -0.0001 0  0.25 0.5 0  0.25 -0.5 0  0.2500374937493749 0.1875187468746875 0  0.5 -0.25 0  0.25002499 -0.125 0  -0.125 -0.25005 0  -0.125 0.25005 0  0.5 0.25 0  -0.25 -0.5 0  -0.5 -0.25005 0  -0.5 0.25005 0  0.125 -0.3124916691673332 0  0.125 0.3437443727884549 0  0.3187498332767468 -0.3187498332767468 0  -0.3125 -0.3125124974994999 0  -0.3125 0.1875875025005001 0  0.04436566007004419 0.1785185187387698 0  0.3437706224620182 0.3437706224620182 0  -0.359407810625422 0.3594296915637348 0  -0.359407810625422 -0.1406703084362652 0  0.08209948494863104 -0.1484533219292508 0  0.3281296842191969 0.03125624875007487 0  0.1612337437527647 0.0454945319044936 0  0.5 -0.125 0  0.3736573308633327 -0.1902100573489204 0  -0.05632383965282133 -0.1281636979131719 0  -0.1875249975 -0.37501249874975 0  -0.02161822989173764 0.354580025951059 0  -0.2160757009003203 -0.1393657085918785 0  -0.01783801249259284 -0.3526895391541273 0  -0.2160757009003203 0.3607342914081215 0  -0.125 0.0001 0  -0.125 -0.0001 0  -0.1875249975 0.1250875012502501 0  0.5 0.125 0  -0.375 0.0001 0  -0.375 -0.0001 0  -0.5 0.125075 0  -0.375 -0.5 0  -0.5 -0.375025 0  0.3828324180271084 0.1875 0  -0.125 0.5 0  0.5 -0.375 0  0.375 -0.5 0  -0.125 -0.5 0  -0.375 0.5 0  0.125 0.5 0  0.125 -0.5 0  0.5 0.375 0  0.375 0.5 0  -0.5 -0.125075 0  -0.5 0.375025 0  -0.06200365993838185 0.1102431244359298 0  0.3921286730834987 -0.07100003899567721 0  -0.001178265146973292 -0.2342725669761844 0  0.219639755882476 -0.3848202826230195 0  0.1764909845376315 -0.2113963654501196 0  0.2343901841136658 0.3031458088961128 0  0.1561195030924493 -0.06553680147678266 0  0.1485501800845649 0.1522005597879607 0  0.07430925316253632 -0.4062458345836666 0  0.1875 0.4218721863942274 0  0.0625 0.4218721863942275 0  0.2776974776570886 -0.2252166395728846 0  -0.2310132101974821 0.2556304703469177 0  -0.2310132101974821 -0.2444695296530824 0  -0.3906265628125469 -0.3906296862497968 0  -0.3906265628125469 0.1094703137502032 0  -0.2812687506255001 0.09383750062512503 0  -0.2812687506255002 -0.406262499374875 0  -0.4101472686723712 0.2071199254696213 0  -0.4101472686723712 -0.2929800745303787 0  0.2470275540227946 -0.02585328932041452 0  0.4068247800249947 0.09140209453477602 0  -0.1176406316218027 0.3957739114529177 0  0.4080574838155757 -0.2809016730332933 0  0.3125 -0.4219344228213859 0  0.4088486496673779 -0.4088486496673779 0  0.1167033063099591 0.2455046542815969 0  -0.02381261413756171 0.2533622281544139 0  0.02735543470987723 0.08802303626707711 0  0.3144655814479235 0.2551097933485553 0  0.2801337679615206 0.4118308473117793 0  0.4101587089138863 0.2773478512831281 0  -0.09689860681079282 -0.4078094624324944 0  0.213976519574722 -0.2941495474331945 0  -0.318965898965983 0.2781458178971435 0  -0.3125 0.4357826538464097 0  -0.318965898965983 -0.2219541821028565 0  -0.3125 -0.06431734615359029 0  -0.4357704230694522 0.3125375 0  -0.4357704230694522 -0.1875625 0  0.4114732283419867 0.4114732283419867 0  -0.4234646583494089 0.4234743507195528 0  -0.4375 -0.0001 0  -0.4375 0.0001 0  0.3164258563077259 0.1230517971377134 0  0.04931026741366369 0.300666438050672 0  0.2304865209107167 0.1009680687096636 0  0.02061587644269779 -0.08558486663800556 0  0.09390691211100699 -0.2329943594667239 0  0.08896107880644889 -0.006809950500825342 0  -0.1875 0.5 0  -0.1392552316473008 -0.09019077220175532 0  0.4170297537744737 0.008612617817243748 0  -0.4243694331702185 -0.08478222235936261 0  -0.1416933693607303 -0.1709733993077484 0  -0.09511425322415427 -0.3261090638251909 0  -0.04508670308176045 0.4323857419859515 0  -0.4375 -0.5 0  -0.1187189609291948 0.1687838380963837 0  0.3117722643778845 -0.07351457101062323 0  0.1513445599038777 -0.4251753449096755 0  0.04472177709904164 -0.3011105058468416 0  0.001740722226491711 -0.4250539693950984 0  -0.03075788851996441 0.178560406845558 0  0.1766313586052732 -0.1370243862559475 0  -0.0761550533906552 0.3051296889632589 0  -0.1485469487091727 0.3268133048125818 0  0.1930083860569673 0.2386735170085497 0  -0.0625 -0.0001 0  -0.0625 0.0001 0  -0.2878141094770303 -0.1320687430427478 0  -0.2875995151119595 0.3444544772933048 0  -0.24076159142329 -0.07161431170272106 0  -0.24076159142329 0.428485688297279 0  0.4263700347703773 -0.1373417231816959 0  -0.1856875708107399 0.19821478019016 0  0.09322297310683496 0.06338537237428626 0  -0.07466041728962823 -0.1981228067401687 0  0.009513123991135172 -0.1613319531958586 0  0.3092144166352111 -0.1625850961304104 0  0.3437404121717113 -0.2534277690952264 0  0.4379744025071972 -0.2176839612869874 0  -0.1297061011176702 0.07587858854060507 0  -0.1875 0.0001 0  -0.1875 -0.0001 0  -0.1875 -0.5 0  -0.1633110600051376 -0.3090045011162743 0  -0.21877499875025 0.06259999875025002 0  -0.21875 -0.4375124968750625 0  -0.25001874937525 -0.3437749968748749 0  -0.2500187493752501 0.1563250031251251 0  -0.5 -0.4375125 0  -0.5 0.06258749999999999 0  0.08904799960830578 -0.08015900599685086 0  0.4108334826406196 0.3444103681633853 0  -0.0625 -0.5 0  0.4414087098136942 0.2187640586098291 0  0.4382361660678968 0.150288432919798 0  -0.3125 0.0001 0  -0.3125 -0.0001 0  -0.3416336343815852 0.06187820768002609 0  -0.3125 -0.5 0  -0.3416336343815852 -0.4382217923199739 0  0.3168016282179152 0.1891009224226147 0  0.4368875345166075 -0.3446993355472595 0  -0.05975660640830217 -0.2683150418715617 0  0.3458703977041003 0.4362216268226822 0  0.5 0.0625 0  0.5 0.3125 0  0.5 -0.0625 0  0.5 -0.4375 0  0.4375 -0.5 0  -0.04197328552084911 -0.06329083152961786 0  0.2257906778195176 0.03586621568734723 0  0.2286857476565217 0.36951555023185 0  0.3548787707540964 -0.3727197121900284 0  -0.1790795964032311 0.4125871598709088 0  -0.0278086253378118 0.05696913583040467 0  -0.2640893654172825 -0.190631969293494 0  -0.1533594275423699 -0.440977335357388 0  0.5 0.4375 0  0.4375 0.5 0  0.1704903431553385 0.2986434949108457 0  0.08721475273820462 0.1287687476127682 0  0.1875 -0.5 0  -0.0625 0.5 0  -0.4375 0.5 0  -0.3125 0.5 0  0.0625 0.5 0  0.125 0.4359369935185367 0  0.3125 -0.5 0  0.1875 0.5 0  0.0625 -0.5 0  0.5 -0.3125 0  0.5 -0.1875 0  0.5 0.1875 0  0.3125 0.5 0  -0.5 -0.1875625 0  -0.5 -0.3125375 0  -0.5 0.1875625 0  -0.5 0.3125375 0  -0.5 0.4375125 0  -0.5 -0.06258749999999999 0  0.3624254104606854 -0.1274336378120225 0  0.1857642697873453 -0.01126882530927889 0  0.03669184495608396 0.2400031982312926 0  0.04068015303098439 0.3629261100764373 0  -0.3851162339112683 0.269026866774594 0  -0.3758332300807991 -0.1995452526923809 0  -0.446144648587372 -0.34378125 0  -0.446144648587372 0.15631875 0  0.3504998016039519 -0.02589861883840036 0  0.2836777321248879 0.07223256202683162 0  0.21875 -0.4466460035652602 0  0.1774501368185094 -0.3419431906700547 0  0.2592287652038449 -0.3368353496836486 0  -0.4486577479325732 0.09383124999999998 0  -0.40625 0.05134972627205531 0  -0.4486577479325732 -0.40626875 0  -0.40625 -0.4487502737279447 0  -0.07907884158578801 0.2127234227389962 0  0.2826672956396865 0.340725212476292 0  0.2552094419670018 0.2470909165729528 0  0.1235030570827048 -0.3722630563328095 0  -0.1765523267242401 -0.2196325740312749 0  -0.3653881707177284 -0.256399556620603 0  -0.3667881364584723 -0.08355066867835562 0  0.1448027058369495 -0.2589171712236736 0  0.2204190758351349 -0.1742931558527921 0  0.125595190811689 -0.1854735536931699 0  0.2751135960266025 -0.2821263988783404 0  0.04714559827497029 0.03095590907283807 0  -0.3694518448121097 0.4428768192088114 0  -0.4163493718954405 0.3665341424253254 0  0.2065677312659464 -0.0897482605048449 0  0.04596501084766122 -0.2039288085874983 0  -0.3678348759016452 -0.3352975447880205 0  -0.3331464162279717 -0.3812640910313448 0  -0.3678348759016452 0.1648024552119795 0  -0.3331464162279716 0.1188359089686553 0  0.006928352547084439 0.4089314103168539 0  -0.008754979675293741 -0.28865535545956 0  0.454824000777391 -0.03125 0  0.4453084397952883 -0.08555947234219879 0  0.0400389030608287 -0.3591593324500765 0  -0.3565047668221014 0.2214443888382642 0  -0.1767790649240408 0.276160039146296 0  -0.4407450517553578 0.2555055370068006 0  -0.4424041217249974 -0.2449977221857678 0  -0.0101841459589043 0.1278467808234489 0  0.1946666826231925 0.1831558471035277 0  0.1023041143695485 0.1885027832887665 0  0.1383943178482503 0.09688656085697314 0  0.1738321521953076 0.3687430643819201 0  0.09375 -0.4563154147117792 0  -0.2831024225358643 0.2351964925231401 0  -0.2621637468582121 -0.2899792135739121 0  -0.2423367266168128 0.3108531660207947 0  0.3858515397252176 -0.3293494555229365 0  -0.09921103529049136 0.4494480844437962 0  -0.1387217209722605 -0.3554699308920083 0  -0.06600083182100508 0.3836351847814501 0  0.1309954671830858 -0.1114321286398948 0  -0.09375 -0.04518048647049126 0  0.04208778762923838 -0.03517827620526504 0  -0.08165643227347709 0.05080163226699017 0  0.2987692351119484 -0.01319048554596328 0  -0.4136288823076366 -0.1379960981994732 0  -0.1856470434007142 -0.05707095126749213 0  -0.15625 0.4588983004055426 0  0.301492156088943 -0.3696020442065089 0  0.2261014656445051 -0.2255765688706129 0  -0.0254711816102797 0.3040308714413081 0  -0.2359814035109398 0.2051098885755096 0  -0.2142660728025848 -0.3074346058732286 0  -0.0444842016587006 -0.3987296650352232 0  -0.06299926340697812 -0.4476735265309565 0  0.2370119789310965 0.4463270361850639 0  0.1025408210352734 0.3898406831534957 0  0.02523186154102609 0.456121755814222 0  0.2703582881149408 -0.4522472093634566 0  0.34375 -0.460967211410693 0  0.1519529867048281 0.2096636028655708 0  -0.1028373102819492 0.3477334553616848 0  0.2543545123482477 -0.07525044338081299 0  0.4586232703312498 
[...]
<PointData  Scalars="f_184501"> 
<DataArray  type="Float64"  Name="f_184501"  format="ascii">1.7858882375644777e-06  2.2853949952608756e-04  1.2954446268362638e-01  5.4565084234913588e-02  1.1150796888791607e-03  3.8725337832906971e-07  5.5166263063027499e-01  5.5280834861598405e-01  1.2732092199226178e-02  1.9816613529409027e-02  2.6262831125812930e-02  1.0584475892501549e-03  1.3432647611804178e-03  1.1673877934919256e-03  4.2793559773990658e-02  2.8927370269230680e-02  4.6719013635697228e-02  3.5066393474484571e-02  4.5101226055258181e-02  4.9984941215575531e-03  5.8436537465388471e-03  4.1558809364086784e-02  2.4404922339724120e-03  5.5388727580089696e-04  5.7816026977899687e-04  3.3918141644066140e-02  3.7724204667903403e-02  4.6282783198067251e-02  2.9008249592143580e-04  2.4515742864599996e-04  4.3693671559331071e-02  4.5905879358160415e-02  7.7611830343635348e-05  3.3817778515435272e-04  5.4659982949183214e-02  3.6072284685066423e-02  4.6180340935226168e-02  2.8203570523735198e-02  4.1185458912008081e-02  1.6180370192906364e-02  2.8678532992238185e-03  1.8521256198115430e-02  2.2586531923760928e-04  1.4503704832307042e-02  1.8416478728665014e-03  3.0316682775260095e-03  3.0572708894704734e-03  3.1277671326427790e-04  3.1362238775164683e-02  1.2769052977712678e-04  1.4309547227312792e-04  1.0354904310793506e-04  8.2690950380395170e-04  5.0513372315607555e-04  4.0648459820856367e-02  7.4746713415061181e-03  4.7046670657341215e-02  4.2782695552711643e-02  6.2191744832773991e-03  5.6111284889599513e-05  3.3806329996923637e-02  2.0388959914292511e-02  5.1048166646761414e-02  4.7300508378268796e-02  1.2117952639323355e-04  1.0564692410696354e-03  1.5393378877030472e-02  3.4436786540997813e-02  2.3005133098891885e-02  3.5045167620416241e-02  4.8533095552788737e-02  4.5644658368755482e-02  4.9785650016813975e-02  5.3200275450557208e-02  2.1072086395139061e-02  4.0032635690896691e-02  2.8039786120315810e-02  4.6991626597605390e-02  7.4848045822874774e-04  7.4388574779447479e-04  3.7593939678543095e-04  2.9661489284697241e-04  3.6835650041489460e-04  1.1112339933965730e-03  3.1989270775620283e-04  1.7901206491498253e-04  3.8396243172306777e-02  3.4854803374401944e-02  7.6963915868390655e-03  4.4071759431432593e-02  3.9793134427212211e-02  5.3329474790521095e-02  4.4108142836810825e-02  2.0749822894793712e-02  7.0627983911291867e-02  4.5375392303813870e-02  4.4395569699437677e-02  4.3973312446780780e-02  7.2079934284296349e-03  4.2808510330333463e-02  1.3875578080012861e-04  2.1359459509045912e-04  1.7515888448950076e-04  3.9454484788195923e-04  3.8517344486398570e-04  2.6099985419226622e-04  4.8198210098305848e-02  3.2388799419721704e-04  2.1225251998644541e-05  1.6705095807787397e-05  4.0458641797450623e-02  3.0916331506201798e-02  4.3847865179462257e-02  6.9717009892848972e-02  3.9910770493209208e-02  6.9755617683580740e-02  3.5567898320292314e-03  8.7000366290068405e-04  3.1984942079333500e-02  1.6387876474389105e-04  2.6847758656494934e-03  7.6861219751015687e-03  1.5011333260993086e-02  4.7518918242410842e-04  4.9804210166349682e-03  3.8302040368775291e-02  2.5687187990121853e-02  2.4817324723154524e-02  1.4033441117451072e-02  2.3292039564739662e-02  5.1786788359585528e-02  1.1658953941542070e-02  4.7910613268427882e-03  4.7749506715941137e-02  9.1041806792990509e-03  9.9907204049503838e-03  2.7454230366835008e-04  3.1452527890569754e-04  3.9924545513698751e-04  1.4346114171534556e-03  3.4532192766812166e-02  1.2164828632334047e-03  6.8352178926357907e-02  1.0908421960520217e-02  3.6000609096635883e-02  4.3552189374806274e-02  4.5671493473082685e-02  3.7667034755231227e-02  1.0712757423491706e-03  1.8827741776663387e-03  2.1003774231167800e-03  4.0701153510497657e-03  3.3742921004685802e-03  4.7563525158457432e-04  2.5534613911614525e-03  1.1264540037627885e-03  1.7671057156804962e-04  2.5216839679535898e-04  1.5943497876852199e-05  6.9001527018730593e-02  4.6531916169024162e-02  9.2606311370476233e-03  3.9970094900011535e-02  3.6071856116440947e-02  4.4248019228079180e-04  5.0261343737412157e-04  3.1635468859230706e-04  1.4230525335949210e-03  8.0733897028690876e-04  4.3639709509258405e-02  4.7644930973537225e-02  1.1917698652206250e-02  4.6216286350748891e-02  2.7924751624975690e-02  4.6812876384577817e-02  2.6442588957431078e-02  6.9283163139310391e-02  6.3351172002815162e-02  2.2886180587659129e-02  3.9366050788485756e-02  4.3481408870249906e-02  4.6885787054618489e-02  3.7154236133567255e-03  4.2579042652774103e-02  2.3068560391496088e-04  4.6927124780128220e-03  5.3750996340900539e-02  5.0645177894361924e-02  4.3731812190455396e-02  5.9384167545922420e-02  2.4734172642752648e-02  1.2995478244713031e-02  4.6701936826008095e-04  2.3169489180009962e-04  2.7333912218449982e-02  3.4762777664982286e-02  3.4092392149216597e-02  3.9263372491970670e-02  1.6514982767504526e-02  4.0406767553339065e-02  3.1416945127876225e-02  3.6220599120641642e-02  4.5034767768209444e-02  3.4074138794172652e-04  6.3365944249929812e-04  3.0470553230023113e-04  8.6551408446669303e-04  1.1946691137163809e-03  1.9340825786284250e-05  3.8434945796268480e-02  4.0866868317924132e-02  3.3688278073464584e-02  2.6920694508068797e-02  2.2594012748406204e-04  2.4077057766831424e-04  3.0265499884925620e-04  2.3008568541568497e-04  3.5129966178200696e-02  3.8920100512212882e-02  2.9223138460984541e-02  3.5693866772371789e-02  4.2165662611154585e-02  1.1785129384358422e-04  1.2377092666247718e-04  3.5495020109139693e-04  5.8215435403290649e-04  1.1216268859774619e-02  4.5419209298451543e-02  4.6803499340315156e-02  2.8024535504872564e-02  1.7497348050191123e-03  1.3673205150077037e-04  3.1193861088967109e-04  4.1825266609574599e-02  4.9052832697463855e-02  5.0027287423571869e-02  4.6100247085946712e-02  1.2666817582121487e-01  5.5091522281025223e-05  2.7308302276540331e-04  4.5817754002977981e-02  3.7316526010772226e-02  1.9548563618428718e-04  4.9480290901419456e-04  3.4641082861603891e-04  3.7502814640650532e-04  2.1220630325012160e-02  1.8155238880871855e-02  2.9146947353364150e-02  3.0922783777455016e-02  2.0253751130327562e-02  2.6104852247857608e-04  2.6098922327650875e-03  3.6812426625325892e-04  2.9290796047421684e-04  3.7964457960612069e-02  4.9343546126774385e-02  4.9953067921353907e-02  5.5613418631390278e-02  4.0510405394400255e-02  1.9561004456944944e-02  2.0541310583783269e-04  6.0032668219838479e-04  8.7837611527236017e-04  4.7614143632209588e-02  9.4847984033221075e-03  4.8190172756746290e-03  1.2601243350885654e-02  5.7289185727477744e-02  2.5930444451407759e-03  1.2669467923627897e-01  4.6939067223703826e-03  3.6620730202677622e-02  2.6833280812314070e-04  5.4035838513930414e-04  5.2803270392950347e-03  4.2825337284524492e-02  4.7783596615426610e-02  1.8767070109201648e-02  3.4094789008466003e-04  1.5193275163899159e-03  1.0860538270425416e-02  9.1940909718519932e-03  4.2308406609471085e-02  3.3505323835585403e-02  2.3188066056277542e-02  3.2854382754845507e-02  3.9963701961648126e-02  4.9091915306505439e-02  8.7881351009660297e-03  4.0933064376514935e-02  3.1778355685136241e-02  3.6986840580327425e-02  3.8079335976102122e-02  2.9266140052693186e-02  1.7678615119156944e-03  5.5688428654978336e-04  1.7778605472708593e-03  1.9678545715145449e-04  4.0318711072633302e-02  4.3511892503676541e-02  4.5157954772013537e-02  1.0503488192381414e-04  5.6655977945418629e-02  5.2621592832144383e-02  4.0369895778276974e-02  2.9591284628984853e-02  4.4808000342712054e-02  1.6606058267098513e-02  3.4264010648321276e-02  4.2191460843252857e-02  2.6603309154710417e-02  4.7198669527394210e-02  3.8132370002459261e-05  4.8902878949463734e-02  4.4075909651859452e-02  7.1792122624608726e-02  8.2999938468559544e-04  4.8673777829481728e-02  5.0909775733803640e-02  4.8958368534557657e-02  4.6590514314134232e-02  1.9578174484760186e-03  6.9352164953192285e-03  1.0879187342854009e-03  2.6226225141019136e-04  4.7020643587755741e-02  1.6523278740046478e-04  3.9287672922444158e-04  3.2205673104963376e-05  1.2184076208230929e-02  1.0557947946201870e-04  4.4912917684240383e-02  4.3937948269738014e-03  4.6080316623442287e-02  2.2676345228159964e-03  4.5594233330884845e-02  4.3776096897046236e-02  1.1264490944221821e-02  5.6497371975386314e-04  4.7063891856140613e-02  5.4744968920499980e-02  3.6791784772424030e-04  3.1396419545227824e-04  2.1075479528895678e-02  3.0773924546120310e-02  7.2390771724297257e-04  5.4685298463202359e-03  9.3035058462102394e-04  6.2067912223979637e-04  2.9336633827083873e-04  3.9092160083901897e-03  4.5023688935266287e-02  1.6843146925354390e-04  2.7870727314928515e-04  6.7687749767212195e-03  7.4527678753241950e-04  3.0282472018511601e-04  2.7770103639402151e-03  2.1246351587748518e-04  6.2634539907351669e-04  6.2988348208539301e-04  6.1165554812749479e-04  2.8954247413451648e-04  3.6462931425833793e-04  9.4779331490844128e-05  4.6342538002870123e-02  3.6962929622346596e-02  3.0174631087028968e-02  4.3553824231914152e-02  3.9587420320199330e-02  5.7558411600160661e-02  4.0506800691139086e-02  2.4339791761514636e-02  3.3760224887799783e-02  4.0803910189813199e-02  4.5962903982445978e-02  2.0850784810555703e-04  4.6078000130203640e-02  1.1595458240516017e-01  8.7750516728150665e-03  1.2546335459324235e-02  8.3080764436794586e-04  6.8986880512117617e-04  3.7094003829326351e-02  3.5653183512086344e-02  6.3289579245214792e-02  3.7528212858095850e-02  2.0100285967099133e-04  3.1319263479652436e-02  2.6241056414884206e-02  3.7682934772992747e-02  3.2922853326942531e-02  4.6538055371831026e-02  4.9998202033079411e-03  9.6689463609562966e-04  3.3864943977869252e-04  8.4628345990397577e-05  3.5408542703726842e-02  4.5717845818872553e-02  4.5738875034378366e-02  4.2135434787610476e-02  3.2353226435639738e-02  4.2088661823191258e-02  2.5431074325058554e-02  3.7616048364160139e-02  3.7529481143909187e-02  5.0507797246521768e-02  1.4171069926557177e-04  6.9378307288773947e-04  1.0133145708458382e-03  1.5923814104783437e-02  1.9352905246825336e-04  3.9717143848769981e-02  1.0937044804192825e-02  1.1914609088107658e-02  4.5122178222321931e-02  7.3841053321660501e-03  3.4588773871095518e-02  1.5323979683929555e-03  3.6803260810665123e-03  4.5159184498395042e-04  1.6245563151998082e-02  4.1696017760885662e-02  3.2291904800630364e-02  1.9213756961809377e-02  3.8240505101653131e-03  6.3363834038606228e-05  2.0225097123032721e-04  3.6307562488019633e-02  5.2540914214306194e-03  1.4268514686570488e-01  2.3135417148459621e-02  2.2364202684957191e-02  1.3355196994222964e-02  1.9715571877904008e-04  3.1711199565736051e-04  5.2555637326278153e-02  1.9566875568392486e-04  1.4559688877555477e-03  4.0179549421217320e-02  5.9207458698443707e-05  1.0769571360983640e-03  1.0314504951529810e-04  1.1468964142527646e-03  4.1114362900892355e-04  4.3151659474969239e-02  1.7196724498888247e-02  4.1137282701524773e-02  5.4482499299397733e-02  3.6553555345013219e-04  4.8083765005423919e-02  4.6591863173683044e-02  4.6162324896818201e-02  2.3462337097803344e-04  3.7588965957047058e-04  1.9501196229598916e-04  3.8537557132887423e-02  4.6162903779490547e-02  4.1531324646951077e-02  3.8053275836358841e-02  1.5890454557160167e-02  2.7377148359209219e-03  5.3496075845116425e-02  1.3132257311654536e-03  4.5917272358847815e-02  6.0548767846891331e-02  6.0112760762808783e-02  5.5096432796618976e-03  2.0425825796419567e-02  3.6614540125484367e-02  1.9242672685376806e-02  4.7958843375833440e-04  4.6844343093814855e-02  1.7013130991410552e-04  3.3954490031504587e-02  3.0716826237091231e-02  7.9376977746884958e-02  4.6634171057740467e-02  5.0989357990461004e-02  4.8262916516083429e-02  5.1288828777582639e-02  3.2609596921966016e-03  2.9148422804899078e-02  5.5020444342048273e-02  1.9294252899967813e-02  6.7106440551327343e-03  3.5141030457394556e-02  4.4375653032712015e-02  2.3027940292142578e-02  1.0658394837591682e-02  2.8618873154240509e-02  2.2696355265473104e-04  8.6460017166693889e-04  4.4050299398462979e-02  4.8934501435561106e-02  2.4853605658634250e-03  2.2832660485466345e-04  3.1389444627637512e-04  1.2714012041117514e-02  6.6981815021305680e-02  8.8367172667099484e-03  1.7405563462067137e-02  4.5705418014114867e-02  3.6143011469670597e-02  2.8201688247790776e-04  8.5906471113488606e-02  1.7367422798318854e-03  1.3499905501312486e-03  3.7246166456810961e-02  3.8893978084963435e-02  4.6136499980856671e-02  2.8405816884823597e-04  1.2530094685380994e-03  3.3315900868975868e-04  3.3665963309447003e-04  5.1882570669826913e-04  3.1254818428290751e-04  1.3483879204598601e-04  8.4149869420444889e-02  3.7692189145632403e-02  4.4606293913560961e-02  4.3069687030109154e-02  1.4197010122590847e-02  3.3905190450428176e-02  4.5215708028853455e-02  6.1029924656722280e-03  1.5265863274298810e-02  7.2564182723450568e-02  4.6586305376131879e-03  5.0647073211646616e-03  1.7774480209050968e-04  2.5228523869181896e-04  7.8744647912176410e-04  5.6848617223151105e-04  4.1372204020174393e-02  1.8317240846033365e-04  4.5337894711283647e-02  4.7135174629937687e-02  4.7129254231172910e-02  4.3644021565249873e-02  4.5969910209865787e-02  4.2361143855432527e-02  4.5852904674020832e-02  4.9360832886798676e-02  4.3718920532005906e-02  4.0996652118300850e-02  3.7401993867029630e-02  4.4951707759311045e-02  2.7318668181091112e-02  1.7844221503220605e-04  1.4422265105878700e-03  1.5317317481114143e-03  9.3651128777463366e-04  5.2748302050478861e-02  5.9132650582071657e-04  1.0778994473385308e-03  3.8346856169675176e-04  8.8342292926810412e-04  2.5855553599081786e-04  1.8550520719251681e-03  3.7680018505892479e-03  3.1244426602915908e-03  5.0648332318487766e-03  2.6023998185788462e-03  4.7885582216082731e-02  1.7439724772787756e-03  1.4503611572400434e-02  4.7051312937111442e-02  7.4684141627730368e-03  2.9890395290260437e-02  3.0895082409389779e-03  4.3564757193457655e-02  1.0887516797195636e-03  2.4717584903722592e-04  2.8509101852846128e-04  3.7533426535992502e-02  5.7900292727282796e-03  3.3962427846871139e-02  5.8804048221864684e-02  6.1524297382490954e-02  1.1263242164684844e-02  3.9181223237627232e-02  3.4214359952318554e-04  1.1997716736027535e-03  4.3171806730202640e-03  4.2501189460244417e-03  4.7295747104218196e-02  1.3400892439977937e-02  4.2914837001541681e-02  2.9653287673147868e-02  3.1005907288745239e-02  5.2493358531640853e-02  4.7201803052473956e-02  5.2005078224617723e-02  6.3698297360617415e-03  1.8246008237315592e-04  3.1284196732418826e-04  2.8044320313488474e-04  3.5715430299468061e-02  3.3135053221191882e-02  4.6717119302958479e-02  2.2450617517392555e-02  4.0412196965989015e-02  1.4083000137909195e-02  4.4923552405209122e-02  4.1496635387952112e-02  2.9745910842297406e-02  7.6594943729747225e-03  1.9464154845358159e-02  3.3818064654775673e-02  3.8939219726316678e-02  4.1260333392420225e-02  4.2319711297255806e-02  1.6898120255039766e-02  2.1052090676618851e-01  1.8495127435684321e-03  7.3580439652680049e-04  8.0154740095259155e-04  8.3002568477039702e-03  1.8516319649361323e-04  4.2344414042543167e-02  2.4165880315106782e-02  7.9422267617291131e-04  3.8289133069772686e-04  2.4220683575343422e-04  6.5365244405136871e-02  5.2732945874890358e-02  5.7122012242133036e-02  6.3078129515801128e-04  4.3739628528213591e-04  4.5039822939551291e-04  4.2068426172865719e-04  5.5116759295460536e-03  4.2750701596293648e-02  3.8622618768426847e-02  4.0924719096638154e-02  9.5430614764780298e-04  4.5109248013355557e-02  2.4864187632956413e-03  4.4006144695065995e-02  4.2096669514129020e-02  3.3642916856697291e-02  3.2163019343025285e-03  5.8734506964201794e-02  3.6746547826890422e-02  2.2451716582656341e-03  5.3520367195563156e-06  5.5520489402573367e-06  4.0056643732502270e-06  3.3046709854729113e-04  2.3822754297748504e-03  3.3313530394750418e-04  1.9138982926537187e-04  3.9052809551710398e-06  1.5747436086030409e-02  8.8970414367661815e-02  1.1018548948306596e-01  4.1270127793160555e-02  6.6104953762328349e-04  2.5617511391248699e-02  3.7602069823990093e-02  3.1952308918671617e-02  3.3522477960143869e-02  4.5881829351175768e-02  4.5007945208902327e-02  4.9258321177619635e-02  4.6301311916043780e-02  2.3844931425352996e-02  4.5894153714163909e-02  3.6606555392232704e-02  3.2931422818287030e-02  5.1313803584435809e-04  2.4619150108539834e-03  5.2739417371111402e-03  2.6965397917767205e-03  2.3983052464893097e-03  1.4627724349520830e-03  5.3905230013713508e-02  1.5378280168376217e-02  2.0846253076182663e-04  2.2581514957836093e-04  3.5423053788753104e-04  4.9789604390578765e-02  2.2419134037671775e-04  1.7132954283219387e-04  3.0993269785553422e-04  2.2653340520401580e-02  2.9012578036977189e-02  2.8305594570585704e-02  1.7877011700241402e-04  4.4106625602678369e-02  4.5636093837456117e-05  6.5029646565064698e-03  3.0482730281061590e-02  1.5434897326203724e-04  3.5407797353834467e-04  4.6244348296146945e-02  3.3575215783796755e-02  3.0723949756081663e-02  3.6912891065982827e-02  4.2987917672442463e-04  6.1568403708550743e-04  4.9054130892481722e-02  4.8793089108252384e-02  4.4180752303789185e-02  3.7414138803452845e-02  4.9850205736917001e-02  5.3878674222388526e-02  5.5482665120486684e-05  5.4050427240481389e-05  2.6839571735075177e-02  2.9476179721324942e-02  3.8117558311846600e-02  2.3671908353889763e-02  5.1316571809852038e-03  1.0019988680221558e-02  1.8488489699712313e-02  2.6077785774902495e-02  6.5118846468441782e-04  2.6692184715954817e-02  2.1472364869753235e-04  1.4628637808757752e-02  4.3954490951170565e-02  1.1642990337482465e-03  5.0409648817347089e-05  2.1876006873555436e-04  4.5847067478345248e-05  1.8687770185992273e-04  3.8129972226758448e-04  6.0038437252356715e-04  9.6349008674733534e-04  1.0538722443235750e-03  1.1404129869007027e-02  4.5208201888214124e-02  4.7077915417384589e-04  2.4390442574161281e-04  3.8957915417045422e-02  4.4113771400926906e-02  3.4239335898295596e-04  3.6304215712478275e-04  4.8590747902633487e-04  3.1944995316331322e-04  3.2226205366056068e-02  2.6924758330371629e-02  3.7195229913580860e-02  3.7268450829052960e-02  5.1554053856230561e-02  3.1690545051139149e-02  2.9135769650606509e-02  4.6324005650695499e-02  3.8252464983083788e-02  3.6993652155179434e-02  1.8162708582321517e-02  4.1047227358417607e-02  2.6827235288897595e-02  3.2207235693898051e-02  5.9001125051427366e-03  4.0121306608208743e-02  2.7563400461280926e-03  3.5458658281852171e-02  1.0172969221684702e-02  4.5638630603214353e-02  2.9963744577279900e-04  3.5594136077180497e-02  5.3313527548706982e-02  4.9225198769957471e-02  1.1224525275412017e-02  8.3037804045323713e-03  2.0685246005487499e-04  2.4883984622673419e-04  5.1750442910957650e-02  3.9935221091836864e-02  4.1175182854862456e-02  4.2524458927889876e-04  5.1545083994624458e-02  4.5304280681762503e-02  3.6865961819739064e-02  3.1167458549136412e-04  2.6275939369127538e-04  4.5527445397146988e-04  1.9465939885949423e-04  4.4620950431103958e-04  9.4878653267987077e-05  3.5879043910881904e-02  3.9567769535967960e-02  3.4101619703076257e-02  4.6453570856012442e-05  3.3151790429858765e-04  5.2684305181941132e-04  4.7135626673622793e-05  1.6297668800473975e-04  1.4411539875369006e-04  5.1895384246465136e-02  1.2631356519721929e-03  1.4111330675556765e-04  3.2447053829757539e-04  3.0371100841034856e-04  2.1570528157157732e-04  4.6305716096847305e-02  4.6941002236278527e-02  4.6081616190171239e-02  3.0160141802518036e-02  2.6317502104353602e-02  4.5686053633962401e-02  6.7084881054826797e-04  1.0219260420909327e-02  7.4362712723967178e-04  3.4642708076463989e-02  2.8136406068101957e-02  9.8497236492356005e-03  4.5358285947002606e-02  1.6072619753513685e-02  7.8780921608506173e-03  4.3495322123047964e-02  3.6859115624053841e-02  2.9587033603605304e-04  2.4098280948025750e-04  4.6058070249056504e-02  1.5820203158675881e-03  5.2334313960847052e-04  4.5446153750449032e-02  4.8058771449602106e-02  4.5453296561161066e-02  3.8711688483561719e-02  1.0856222367947239e-04  4.5623477142380950e-02  3.4155697783896079e-02  2.6218882296739826e-02  2.098409743