<?xml version="1.0"?>
<VTKFile type="UnstructuredGrid"  version="0.1"  >
<UnstructuredGrid>
<Piece  NumberOfPoints="1515" NumberOfCells="2858">
<Points>
<DataArray  type="Float64"  NumberOfComponents="3"  format="ascii">-0.5 -0.0001 0  -0.5 -0.5 0  0.5 -0.5 0  0.5 0.5 0  -0.5 0.5 0  -0.5 0.0001 0  0 0.0001 0  0 -0.0001 0  0 -0.5 0  0 0.5 0  0.5 0 0  -0.25 0.0001 0  -0.25 0.5 0  -0.25 -0.0001 0  0.25 0.5 0  0.25 -0.5 0  0.2500374937493749 0.1875187468746875 0  0.5 -0.25 0  0.25002499 -0.125 0  -0.125 -0.25005 0  -0.125 0.25005 0  0.5 0.25 0  -0.25 -0.5 0  -0.5 -0.25005 0  -0.5 0.25005 0  0.125 -0.3124916691673332 0  0.125 0.3437443727884549 0  0.3187498332767468 -0.3187498332767468 0  -0.3125 -0.3125124974994999 0  -0.3125 0.1875875025005001 0  0.04436566007004419 0.1785185187387698 0  0.3437706224620182 0.3437706224620182 0  -0.359407810625422 0.3594296915637348 0  -0.359407810625422 -0.1406703084362652 0  0.08209948494863104 -0.1484533219292508 0  0.3281296842191969 0.03125624875007487 0  0.1612337437527647 0.0454945319044936 0  0.5 -0.125 0  0.3736573308633327 -0.1902100573489204 0  -0.05632383965282133 -0.1281636979131719 0  -0.1875249975 -0.37501249874975 0  -0.02161822989173764 0.354580025951059 0  -0.2160757009003203 -0.1393657085918785 0  -0.01783801249259284 -0.3526895391541273 0  -0.2160757009003203 0.3607342914081215 0  -0.125 0.0001 0  -0.125 -0.0001 0  -0.1875249975 0.1250875012502501 0  0.5 0.125 0  -0.375 0.0001 0  -0.375 -0.0001 0  -0.5 0.125075 0  -0.375 -0.5 0  -0.5 -0.375025 0  0.3828324180271084 0.1875 0  -0.125 0.5 0  0.5 -0.375 0  0.375 -0.5 0  -0.125 -0.5 0  -0.375 0.5 0  0.125 0.5 0  0.125 -0.5 0  0.5 0.375 0  0.375 0.5 0  -0.5 -0.125075 0  -0.5 0.375025 0  -0.06200365993838185 0.1102431244359298 0  0.3921286730834987 -0.07100003899567721 0  -0.001178265146973292 -0.2342725669761844 0  0.219639755882476 -0.3848202826230195 0  0.1764909845376315 -0.2113963654501196 0  0.2343901841136658 0.3031458088961128 0  0.1561195030924493 -0.06553680147678266 0  0.1485501800845649 0.1522005597879607 0  0.07430925316253632 -0.4062458345836666 0  0.1875 0.4218721863942274 0  0.0625 0.4218721863942275 0  0.2776974776570886 -0.2252166395728846 0  -0.2310132101974821 0.2556304703469177 0  -0.2310132101974821 -0.2444695296530824 0  -0.3906265628125469 -0.3906296862497968 0  -0.3906265628125469 0.1094703137502032 0  -0.2812687506255001 0.09383750062512503 0  -0.2812687506255002 -0.406262499374875 0  -0.4101472686723712 0.2071199254696213 0  -0.4101472686723712 -0.2929800745303787 0  0.2470275540227946 -0.02585328932041452 0  0.4068247800249947 0.09140209453477602 0  -0.1176406316218027 0.3957739114529177 0  0.4080574838155757 -0.2809016730332933 0  0.3125 -0.4219344228213859 0  0.4088486496673779 -0.4088486496673779 0  0.1167033063099591 0.2455046542815969 0  -0.02381261413756171 0.2533622281544139 0  0.02735543470987723 0.08802303626707711 0  0.3144655814479235 0.2551097933485553 0  0.2801337679615206 0.4118308473117793 0  0.4101587089138863 0.2773478512831281 0  -0.09689860681079282 -0.4078094624324944 0  0.213976519574722 -0.2941495474331945 0  -0.318965898965983 0.2781458178971435 0  -0.3125 0.4357826538464097 0  -0.318965898965983 -0.2219541821028565 0  -0.3125 -0.06431734615359029 0  -0.4357704230694522 0.3125375 0  -0.4357704230694522 -0.1875625 0  0.4114732283419867 0.4114732283419867 0  -0.4234646583494089 0.4234743507195528 0  -0.4375 -0.0001 0  -0.4375 0.0001 0  0.3164258563077259 0.1230517971377134 0  0.04931026741366369 0.300666438050672 0  0.2304865209107167 0.1009680687096636 0  0.02061587644269779 -0.08558486663800556 0  0.09390691211100699 -0.2329943594667239 0  0.08896107880644889 -0.006809950500825342 0  -0.1875 0.5 0  -0.1392552316473008 -0.09019077220175532 0  0.4170297537744737 0.008612617817243748 0  -0.4243694331702185 -0.08478222235936261 0  -0.1416933693607303 -0.1709733993077484 0  -0.09511425322415427 -0.3261090638251909 0  -0.04508670308176045 0.4323857419859515 0  -0.4375 -0.5 0  -0.1187189609291948 0.1687838380963837 0  0.3117722643778845 -0.07351457101062323 0  0.1513445599038777 -0.4251753449096755 0  0.04472177709904164 -0.3011105058468416 0  0.001740722226491711 -0.4250539693950984 0  -0.03075788851996441 0.178560406845558 0  0.1766313586052732 -0.1370243862559475 0  -0.0761550533906552 0.3051296889632589 0  -0.1485469487091727 0.3268133048125818 0  0.1930083860569673 0.2386735170085497 0  -0.0625 -0.0001 0  -0.0625 0.0001 0  -0.2878141094770303 -0.1320687430427478 0  -0.2875995151119595 0.3444544772933048 0  -0.24076159142329 -0.07161431170272106 0  -0.24076159142329 0.428485688297279 0  0.4263700347703773 -0.1373417231816959 0  -0.1856875708107399 0.19821478019016 0  0.09322297310683496 0.06338537237428626 0  -0.07466041728962823 -0.1981228067401687 0  0.009513123991135172 -0.1613319531958586 0  0.3092144166352111 -0.1625850961304104 0  0.3437404121717113 -0.2534277690952264 0  0.4379744025071972 -0.2176839612869874 0  -0.1297061011176702 0.07587858854060507 0  -0.1875 0.0001 0  -0.1875 -0.0001 0  -0.1875 -0.5 0  -0.1633110600051376 -0.3090045011162743 0  -0.21877499875025 0.06259999875025002 0  -0.21875 -0.4375124968750625 0  -0.25001874937525 -0.3437749968748749 0  -0.2500187493752501 0.1563250031251251 0  -0.5 -0.4375125 0  -0.5 0.06258749999999999 0  0.08904799960830578 -0.08015900599685086 0  0.4108334826406196 0.3444103681633853 0  -0.0625 -0.5 0  0.4414087098136942 0.2187640586098291 0  0.4382361660678968 0.150288432919798 0  -0.3125 0.0001 0  -0.3125 -0.0001 0  -0.3416336343815852 0.06187820768002609 0  -0.3125 -0.5 0  -0.3416336343815852 -0.4382217923199739 0  0.3168016282179152 0.1891009224226147 0  0.4368875345166075 -0.3446993355472595 0  -0.05975660640830217 -0.2683150418715617 0  0.3458703977041003 0.4362216268226822 0  0.5 0.0625 0  0.5 0.3125 0  0.5 -0.0625 0  0.5 -0.4375 0  0.4375 -0.5 0  -0.04197328552084911 -0.06329083152961786 0  0.2257906778195176 0.03586621568734723 0  0.2286857476565217 0.36951555023185 0  0.3548787707540964 -0.3727197121900284 0  -0.1790795964032311 0.4125871598709088 0  -0.0278086253378118 0.05696913583040467 0  -0.2640893654172825 -0.190631969293494 0  -0.1533594275423699 -0.440977335357388 0  0.5 0.4375 0  0.4375 0.5 0  0.1704903431553385 0.2986434949108457 0  0.08721475273820462 0.1287687476127682 0  0.1875 -0.5 0  -0.0625 0.5 0  -0.4375 0.5 0  -0.3125 0.5 0  0.0625 0.5 0  0.125 0.4359369935185367 0  0.3125 -0.5 0  0.1875 0.5 0  0.0625 -0.5 0  0.5 -0.3125 0  0.5 -0.1875 0  0.5 0.1875 0  0.3125 0.5 0  -0.5 -0.1875625 0  -0.5 -0.3125375 0  -0.5 0.1875625 0  -0.5 0.3125375 0  -0.5 0.4375125 0  -0.5 -0.06258749999999999 0  0.3624254104606854 -0.1274336378120225 0  0.1857642697873453 -0.01126882530927889 0  0.03669184495608396 0.2400031982312926 0  0.04068015303098439 0.3629261100764373 0  -0.3851162339112683 0.269026866774594 0  -0.3758332300807991 -0.1995452526923809 0  -0.446144648587372 -0.34378125 0  -0.446144648587372 0.15631875 0  0.3504998016039519 -0.02589861883840036 0  0.2836777321248879 0.07223256202683162 0  0.21875 -0.4466460035652602 0  0.1774501368185094 -0.3419431906700547 0  0.2592287652038449 -0.3368353496836486 0  -0.4486577479325732 0.09383124999999998 0  -0.40625 0.05134972627205531 0  -0.4486577479325732 -0.40626875 0  -0.40625 -0.4487502737279447 0  -0.07907884158578801 0.2127234227389962 0  0.2826672956396865 0.340725212476292 0  0.2552094419670018 0.2470909165729528 0  0.1235030570827048 -0.3722630563328095 0  -0.1765523267242401 -0.2196325740312749 0  -0.3653881707177284 -0.256399556620603 0  -0.3667881364584723 -0.08355066867835562 0  0.1448027058369495 -0.2589171712236736 0  0.2204190758351349 -0.1742931558527921 0  0.125595190811689 -0.1854735536931699 0  0.2751135960266025 -0.2821263988783404 0  0.04714559827497029 0.03095590907283807 0  -0.3694518448121097 0.4428768192088114 0  -0.4163493718954405 0.3665341424253254 0  0.2065677312659464 -0.0897482605048449 0  0.04596501084766122 -0.2039288085874983 0  -0.3678348759016452 -0.3352975447880205 0  -0.3331464162279717 -0.3812640910313448 0  -0.3678348759016452 0.1648024552119795 0  -0.3331464162279716 0.1188359089686553 0  0.006928352547084439 0.4089314103168539 0  -0.008754979675293741 -0.28865535545956 0  0.454824000777391 -0.03125 0  0.4453084397952883 -0.08555947234219879 0  0.0400389030608287 -0.3591593324500765 0  -0.3565047668221014 0.2214443888382642 0  -0.1767790649240408 0.276160039146296 0  -0.4407450517553578 0.2555055370068006 0  -0.4424041217249974 -0.2449977221857678 0  -0.0101841459589043 0.1278467808234489 0  0.1946666826231925 0.1831558471035277 0  0.1023041143695485 0.1885027832887665 0  0.1383943178482503 0.09688656085697314 0  0.1738321521953076 0.3687430643819201 0  0.09375 -0.4563154147117792 0  -0.2831024225358643 0.2351964925231401 0  -0.2621637468582121 -0.2899792135739121 0  -0.2423367266168128 0.3108531660207947 0  0.3858515397252176 -0.3293494555229365 0  -0.09921103529049136 0.4494480844437962 0  -0.1387217209722605 -0.3554699308920083 0  -0.06600083182100508 0.3836351847814501 0  0.1309954671830858 -0.1114321286398948 0  -0.09375 -0.04518048647049126 0  0.04208778762923838 -0.03517827620526504 0  -0.08165643227347709 0.05080163226699017 0  0.2987692351119484 -0.01319048554596328 0  -0.4136288823076366 -0.1379960981994732 0  -0.1856470434007142 -0.05707095126749213 0  -0.15625 0.4588983004055426 0  0.301492156088943 -0.3696020442065089 0  0.2261014656445051 -0.2255765688706129 0  -0.0254711816102797 0.3040308714413081 0  -0.2359814035109398 0.2051098885755096 0  -0.2142660728025848 -0.3074346058732286 0  -0.0444842016587006 -0.3987296650352232 0  -0.06299926340697812 -0.4476735265309565 0  0.2370119789310965 0.4463270361850639 0  0.1025408210352734 0.3898406831534957 0  0.02523186154102609 0.456121755814222 0  0.2703582881149408 -0.4522472093634566 0  0.34375 -0.460967211410693 0  0.1519529867048281 0.2096636028655708 0  -0.1028373102819492 0.3477334553616848 0  0.2543545123482477 -0.07525044338081299 0  0.4586232703312498 
[...]
<PointData  Scalars="f_184501"> 
<DataArray  type="Float64"  Name="f_184501"  format="ascii">1.7901199937887287e-06  2.2729467231906287e-04  1.3049672611614133e-01  5.4974097405342995e-02  1.1235186624630751e-03  3.8831834617783166e-07  5.6630500525535254e-01  5.6745816594928367e-01  1.2782415567849717e-02  1.9884436067915678e-02  2.6421769542477588e-02  1.0633754813828091e-03  1.3420061750094355e-03  1.1718381528769937e-03  4.3054758659423494e-02  2.9099137949540482e-02  4.7066161955811543e-02  3.5315478554997247e-02  4.5451454586039677e-02  4.9954820050622370e-03  5.8408945705131516e-03  4.1852376759636489e-02  2.4431379577769378e-03  5.5647552786059601e-04  5.8145007583668498e-04  3.4100122267354739e-02  3.7920416011848257e-02  4.6606724872127997e-02  2.8952733556803872e-04  2.4791190445082746e-04  4.3882958841117460e-02  4.6224598148913790e-02  7.8671060108154381e-05  3.4047781762779099e-04  5.5001182210272642e-02  3.6318109736641381e-02  4.6592139462486547e-02  2.8386730555481278e-02  4.1478803649253757e-02  1.6140343525580768e-02  2.8694559150681752e-03  1.8575350942263480e-02  2.2561234687977743e-04  1.4547783933868966e-02  1.8402318202304492e-03  3.0455511062406166e-03  3.0705386133947619e-03  3.1076587294131928e-04  3.1563646318480451e-02  1.2816363324218583e-04  1.4351697005829167e-04  1.0396907243460913e-04  8.2663010031224838e-04  5.0873427852403939e-04  4.0935192826295742e-02  7.4877061382658270e-03  4.7380624803963586e-02  4.3074430306498525e-02  6.2356719444740692e-03  5.6942533704333621e-05  3.3972062495367335e-02  2.0491629130666093e-02  5.1426910485070275e-02  4.7629571636656272e-02  1.2155284279294175e-04  1.0638259808938228e-03  1.5337519624979512e-02  3.4667740853194483e-02  2.3063998795534019e-02  3.5258501800837852e-02  4.8876044020394596e-02  4.5945204169823603e-02  5.0237623111506369e-02  5.3606484668974434e-02  2.1167158232029498e-02  4.0258550001826474e-02  2.8158166643812078e-02  4.7335911263061338e-02  7.4649406562831886e-04  7.4204307954600722e-04  3.7616066962359372e-04  2.9841584359699598e-04  3.7168940297675919e-04  1.1105837749288143e-03  3.2244916003301027e-04  1.8043459495662982e-04  3.8677891523421402e-02  3.5087870112337709e-02  7.7081307224312924e-03  4.4383560467031798e-02  4.0055979686954832e-02  5.3705454314953126e-02  4.4360674267940721e-02  2.0795140917243819e-02  7.0895412548697911e-02  4.5698232328553252e-02  4.4680873231634263e-02  4.4286541447602634e-02  7.2245233054541958e-03  4.3088549271106169e-02  1.3988157561573391e-04  2.1252539327978138e-04  1.7649850715026905e-04  3.9674257347669252e-04  3.8840384069364355e-04  2.6254750761306049e-04  4.8543214594443482e-02  3.2714915754402925e-04  2.1276203867592537e-05  1.6754710811757970e-05  4.0750373534143416e-02  3.1043159745856908e-02  4.4190254720577651e-02  6.9914070913464355e-02  4.0120959766152917e-02  7.0761697910830687e-02  3.5590765759567588e-03  8.6359916920806883e-04  3.2191809057694733e-02  1.6454706680768452e-04  2.6746750078854345e-03  7.6972165345779225e-03  1.5053461008558472e-02  4.7490533203129701e-04  4.9669996704016575e-03  3.8573686838824756e-02  2.5822837480783230e-02  2.4915071741490203e-02  1.4084851118884708e-02  2.3311566446550708e-02  5.2207119760525965e-02  1.1677420721575215e-02  4.7925276708096461e-03  4.8074967154973502e-02  9.1586700949953907e-03  1.0060741324798384e-02  2.7709747970063389e-04  3.1365702511925765e-04  4.0253504436905301e-04  1.4334208917148369e-03  3.4766919150566220e-02  1.2117855851200736e-03  6.9056569890821429e-02  1.0903901202075746e-02  3.6079417541702762e-02  4.3873463500310753e-02  4.5999357458175814e-02  3.7930260610624295e-02  1.0635627512761354e-03  1.8923600105683123e-03  2.1090453820315526e-03  4.0780889615587247e-03  3.3739403626528038e-03  4.7980865697648566e-04  2.5558858925228546e-03  1.1252056048454034e-03  1.7829997318485625e-04  2.5413599892455099e-04  1.5993817389333974e-05  6.9652023291418716e-02  4.6864517647562408e-02  9.2917036638667291e-03  4.0248995570018251e-02  3.6315863349544869e-02  4.4436104181253124e-04  5.0431133191095967e-04  3.1819820941643331e-04  1.4233835542497610e-03  8.0682381079005426e-04  4.3956737940356150e-02  4.7980843305834159e-02  1.1934767076485851e-02  4.6531263927219062e-02  2.8096326147633272e-02  4.7154107530322530e-02  2.6606192913599704e-02  6.9774745129996638e-02  6.3815722742209632e-02  2.2764092586237898e-02  3.9665180929483734e-02  4.3749440735119431e-02  4.7211832870625033e-02  3.7174188011921128e-03  4.2379093086958280e-02  2.3140088568088463e-04  4.7018027592204189e-03  5.4153196813679347e-02  5.1014661046011156e-02  4.3995574573372442e-02  5.9799073396075160e-02  2.4870539793938707e-02  1.3029703050433180e-02  4.7132676684026988e-04  2.3049580015288112e-04  2.7449129022563808e-02  3.4936080635135973e-02  3.4309128258314073e-02  3.9482262836167348e-02  1.6589767001950625e-02  4.0697013713787381e-02  3.1632056652462798e-02  3.6465820267698096e-02  4.5329781654628996e-02  3.4203841514771988e-04  6.3722897002351224e-04  3.0619757003029144e-04  8.7104397157134893e-04  1.2033971741392255e-03  1.9389645101840805e-05  3.8704967981302095e-02  4.1202638232407052e-02  3.3818005464785458e-02  2.7027189474084071e-02  2.2846014638769449e-04  2.4281525061794037e-04  3.0468166502691180e-04  2.3144502869313531e-04  3.5366120202156244e-02  3.9200715451700847e-02  2.9393180788112792e-02  3.5903786839146079e-02  4.2445431643909154e-02  1.1840935342587882e-04  1.2433935313528615e-04  3.5661026812195139e-04  5.8226985705409930e-04  1.1215063174325118e-02  4.5722374979064631e-02  4.7133613270497997e-02  2.8168612102077589e-02  1.7449969034806989e-03  1.3800157680994528e-04  3.1350179331842998e-04  4.2078502146731638e-02  4.9430197004785792e-02  5.0363573143270349e-02  4.6424217943575985e-02  1.2867922614774552e-01  5.5812334637240397e-05  2.7591303898490463e-04  4.6193025491324154e-02  3.7467326169658581e-02  1.9570435133434611e-04  4.9403881530989721e-04  3.4925167315868273e-04  3.7801421117932184e-04  2.1294443296058140e-02  1.8205317817055706e-02  2.9330972739481029e-02  3.1124544380129064e-02  2.0333824578948109e-02  2.6386965597541767e-04  2.6068350117703729e-03  3.7091232417875327e-04  2.9477491286928714e-04  3.7983444446845337e-02  4.9709954350815905e-02  5.0257994432355901e-02  5.6101140650581617e-02  4.0739767738298752e-02  1.9653768836538694e-02  2.0638720582996542e-04  5.9906427337801213e-04  8.7671172415649233e-04  4.7950302203076778e-02  9.5043374057276007e-03  4.8240724207806816e-03  1.2630228016112161e-02  5.7776733150452411e-02  2.5825739588835523e-03  1.2852732110430967e-01  4.6542397734925332e-03  3.6874403081715600e-02  2.6976723244975066e-04  5.4487279682373531e-04  5.2866220501428798e-03  4.3114118860051918e-02  4.8129467461866533e-02  1.8815945081000870e-02  3.4024208259418755e-04  1.5176737619221180e-03  1.0892403131210277e-02  9.2224916803765999e-03  4.2563211163799783e-02  3.3665532679821600e-02  2.3275360119904547e-02  3.3057443557974832e-02  4.0229796695448128e-02  4.9422421368363695e-02  8.8010726942861078e-03  4.1241665931606539e-02  3.1983429705943978e-02  3.7241501635131027e-02  3.8342881380945722e-02  2.9449598234970870e-02  1.7686375176371011e-03  5.6042883270738674e-04  1.7778386529986279e-03  1.9923378863780813e-04  4.0536545131913133e-02  4.3822005891348624e-02  4.5477481314857592e-02  1.0539771589259319e-04  5.7054661788184892e-02  5.2993999960224553e-02  4.0656134096742388e-02  2.9707703761701468e-02  4.5134621293544203e-02  1.6676950236354859e-02  3.4491222896938629e-02  4.2490685933309812e-02  2.6727328161066540e-02  4.7664785370524244e-02  3.8243799265316156e-05  4.9290502338513856e-02  4.4391489418370490e-02  7.2311025941049031e-02  8.2844381348411665e-04  4.9021325259944674e-02  5.1283421935994208e-02  4.9315366046774292e-02  4.6915188813579638e-02  1.9548902831365961e-03  6.9152415829599693e-03  1.0952694257406175e-03  2.6456826482415985e-04  4.7361764331643880e-02  1.6461972272677531e-04  3.9362662806191319e-04  3.2324644605485720e-05  1.2210699623952796e-02  1.0709825593313310e-04  4.5205654311453417e-02  4.3725368487288222e-03  4.6398239200070836e-02  2.2658354378763380e-03  4.5901108120556984e-02  4.4100942088424314e-02  1.1275156291565764e-02  5.6309847866369098e-04  4.7458314364596875e-02  5.4992158526964804e-02  3.7026012473365328e-04  3.1591825871409154e-04  2.1097495759801240e-02  3.0859766971476837e-02  7.1889686407765492e-04  5.4386815846998501e-03  9.3589146833981864e-04  6.1957575120197175e-04  2.9645669507014273e-04  3.9106398046958920e-03  4.5323850781119134e-02  1.6877336004704767e-04  2.7856116423419431e-04  6.7862785764688785e-03  7.5108580398632974e-04  3.0412936512430459e-04  2.7776917324897061e-03  2.1337634773571621e-04  6.3109648417780271e-04  6.2833451207172815e-04  6.1441404297747399e-04  2.9068916889891521e-04  3.6709605313448859e-04  9.6219188880967556e-05  4.6694444657127437e-02  3.7157577229528435e-02  3.0310388797389228e-02  4.3820622414859595e-02  3.9827973239935727e-02  5.8171212141947676e-02  4.0799956576497799e-02  2.4423778541130925e-02  3.3991174269628673e-02  4.1094906059316878e-02  4.6279709964795940e-02  2.1094248673910327e-04  4.6432307591133599e-02  1.1626837120655702e-01  8.7942267833475331e-03  1.2532267837125287e-02  8.3744770292882632e-04  6.9555111293268207e-04  3.7329846348850677e-02  3.5589489554008855e-02  6.3652399128526840e-02  3.7795007396158813e-02  2.0253453800676930e-04  3.1496471028254487e-02  2.6327692972408803e-02  3.7860910760413161e-02  3.3072920246556205e-02  4.6868447687141407e-02  5.0079028237126934e-03  9.7191690488977679e-04  3.3815016852279799e-04  8.4919229082264488e-05  3.5591993036989913e-02  4.6035819960647983e-02  4.6070044761183114e-02  4.2449969862016233e-02  3.2564286307920021e-02  4.2292712161051536e-02  2.5570178515968135e-02  3.7877851555140327e-02  3.7728287768376639e-02  5.0863110458991521e-02  1.4208458196885451e-04  6.9799975727025598e-04  1.0086687942029919e-03  1.5943985201752803e-02  1.9581917270287909e-04  3.9968579884457796e-02  1.0976923562574221e-02  1.1958765269974855e-02  4.5368279633123051e-02  7.3891622105994792e-03  3.4818943091035781e-02  1.5248808512256234e-03  3.6727620272386228e-03  4.5349911726629883e-04  1.6294792783273480e-02  4.2029805382749051e-02  3.2501404325290841e-02  1.9280375846099207e-02  3.8167487739268202e-03  6.2972736217808186e-05  2.0399855846501842e-04  3.6556308091309296e-02  5.2541755838717607e-03  1.4377864071964197e-01  2.3249043188434935e-02  2.2478676794566280e-02  1.3384034121341986e-02  1.9824202661633815e-04  3.1938836192569193e-04  5.2947529745006106e-02  1.9740404062336051e-04  1.4520842402455118e-03  4.0408298238701706e-02  5.9168074792286385e-05  1.0686650920762558e-03  1.0340566013284174e-04  1.1465442127638723e-03  4.1382162466467413e-04  4.3417588621381384e-02  1.7247109449704933e-02  4.1441509218661847e-02  5.4890974242566129e-02  3.6398129391022242e-04  4.8430901430763722e-02  4.6905350394569965e-02  4.6453276591490615e-02  2.3701001715809998e-04  3.7878629364030423e-04  1.9635265620325962e-04  3.8807474172217180e-02  4.6245225280173705e-02  4.1824731063502790e-02  3.8325092777224311e-02  1.5947382300582711e-02  2.7234800699262318e-03  5.4052055006661257e-02  1.3165112426370765e-03  4.6210713243021437e-02  6.1308428591289502e-02  6.0899436425227466e-02  5.4725150127505427e-03  2.0402334489735822e-02  3.6706717369805630e-02  1.9268450448857843e-02  4.7820153116834513e-04  4.7178049375393209e-02  1.7208176766138691e-04  3.4182671694004192e-02  3.0919381861024432e-02  8.0314160999946482e-02  4.6969952979182293e-02  5.1427487520522577e-02  4.8646181535953431e-02  5.1674019645615320e-02  3.2646402768776407e-03  2.9313904446369856e-02  5.5431553790706738e-02  1.9358512752466493e-02  6.7204846642604510e-03  3.5365467513894147e-02  4.4564903387192233e-02  2.3028717975216832e-02  1.0681226596888830e-02  2.8694808169838069e-02  2.2672887676930580e-04  8.6297435100215515e-04  4.4366916872798645e-02  4.8896860694831644e-02  2.4851324372860951e-03  2.2962878833582696e-04  3.1522618643894034e-04  1.2644997326227536e-02  6.7428796213168316e-02  8.8380534896128245e-03  1.7475453013457522e-02  4.6028400488098795e-02  3.6315825188026271e-02  2.8388241410843510e-04  8.6641204471792410e-02  1.7356087703716393e-03  1.3487498376208271e-03  3.7500443763354263e-02  3.9163671407715962e-02  4.6447985644317444e-02  2.8549021307548218e-04  1.2505523620608885e-03  3.3251440196328368e-04  3.3980998233908166e-04  5.2241627578743027e-04  3.1418654137231746e-04  1.3402588585144932e-04  8.4835654135075808e-02  3.7954797022515453e-02  4.4893805488666894e-02  4.3375482155204093e-02  1.4255324370519648e-02  3.4129360081346358e-02  4.5540051278422054e-02  6.1089537407057349e-03  1.5294642059029721e-02  7.3527016267453726e-02  4.6588596682636142e-03  5.0682087167732556e-03  1.7859009843215800e-04  2.5368860737394190e-04  7.8717189806642345e-04  5.6829039203112940e-04  4.1607548819531791e-02  1.8396058898811286e-04  4.5639155049287228e-02  4.7462443231051206e-02  4.7458643763052290e-02  4.3971965303809736e-02  4.6311209997155850e-02  4.2667565201000159e-02  4.6176702358268623e-02  4.9708868808448672e-02  4.4032910684023922e-02  4.1285689937071469e-02  3.7665336376302545e-02  4.5271860392885450e-02  2.7491953089523825e-02  1.8067504025730298e-04  1.4494276929437905e-03  1.5380299702300729e-03  9.4307049349704418e-04  5.3139602085260917e-02  5.9013342021997628e-04  1.0769672609711551e-03  3.8708785712941859e-04  8.8849598513181922e-04  2.6149080258457163e-04  1.8545010748431763e-03  3.7745384673177045e-03  3.1291753029506217e-03  5.0764890083246743e-03  2.6054112825830119e-03  4.8243575945207826e-02  1.7443438200540034e-03  1.4544348024320669e-02  4.7495368437905069e-02  7.4751747023967339e-03  3.0031525127727460e-02  3.0843932477730030e-03  4.3836918726533967e-02  1.0886188420895151e-03  2.4813621537550864e-04  2.8599517515807689e-04  3.7795226612898518e-02  5.7784847670821092e-03  3.4197731495462076e-02  5.9366249410011417e-02  6.1990179807642792e-02  1.1300440002145478e-02  3.9470145533918498e-02  3.4385738037659392e-04  1.1997273975715695e-03  4.3308107073057548e-03  4.2641007064622575e-03  4.7627388904529624e-02  1.3383905429875255e-02  4.3222488049499262e-02  2.9781739694672980e-02  3.1196119747948090e-02  5.2863108678779198e-02  4.7537698471519098e-02  5.2435335556432094e-02  6.3809535262986661e-03  1.8415967443389036e-04  3.1568954285184824e-04  2.8317828838092036e-04  3.5956424580788217e-02  3.3352281203771122e-02  4.7049435117697797e-02  2.2569156187777804e-02  4.0676740974001070e-02  1.3972359600160428e-02  4.5214424411516942e-02  4.1739298780301311e-02  2.9944522424049918e-02  7.6826900811427469e-03  1.9415455088521279e-02  3.4041343124971389e-02  3.9208875686985264e-02  4.1550906615706401e-02  4.2619295582198478e-02  1.6934050710547894e-02  2.1548791985111615e-01  1.8506939641187714e-03  7.3907313621986625e-04  8.0443682451729890e-04  8.3057039963406673e-03  1.8550659957360373e-04  4.2648080571371767e-02  2.4278591128286002e-02  7.9346721799860003e-04  3.8578241622172331e-04  2.4203117532971638e-04  6.5916099302758144e-02  5.3022769403387134e-02  5.7571421632686123e-02  6.3399444693400936e-04  4.3980488188173698e-04  4.5276599778342386e-04  4.2324537796259665e-04  5.5248308066269862e-03  4.3090194484214320e-02  3.8913630674363632e-02  4.1256197150382756e-02  9.5236366332853480e-04  4.5441614548119520e-02  2.4738863361841272e-03  4.4306161590357378e-02  4.2402921611545956e-02  3.3800404787242409e-02  3.2131629207753144e-03  5.9152235597299790e-02  3.6936039033134381e-02  2.2450849288826848e-03  5.3643648581826729e-06  5.5645361968613769e-06  4.0166499167421881e-06  3.3303559097365242e-04  2.3640801588468499e-03  3.3261141030035577e-04  1.9142231256398645e-04  3.9164260227602799e-06  1.5791800431288982e-02  8.9634328509077960e-02  1.1098812023141423e-01  4.1511638894843966e-02  6.6567659845741386e-04  2.5717842356380548e-02  3.7802488778072241e-02  3.2100948210915914e-02  3.3685726169073282e-02  4.6176619611564988e-02  4.5293668356359465e-02  4.9603416725657434e-02  4.6626548788613699e-02  2.3927094158473355e-02  4.6202406587053359e-02  3.6858696259621668e-02  3.3132153427794811e-02  5.1745440611198766e-04  2.4618812123861486e-03  5.2790425788837277e-03  2.7077756932532820e-03  2.4105432468278258e-03  1.4707428464532948e-03  5.4285134298982345e-02  1.5285156716817423e-02  2.0998461999552302e-04  2.2775516962783701e-04  3.5376732848144859e-04  5.0153016293890303e-02  2.2625981856538697e-04  1.7298661517015126e-04  3.0937396520751330e-04  2.2731040684594795e-02  2.9129979521755785e-02  2.8481592414741748e-02  1.7942304194122350e-04  4.4486365466525561e-02  4.5898365207540086e-05  6.4940507920670000e-03  3.0676391534735420e-02  1.5513513143103916e-04  3.5637381373201065e-04  4.6563316238344518e-02  3.3810246119428761e-02  3.0864298963671311e-02  3.7107441967502576e-02  4.3170025289248655e-04  6.1414881114314551e-04  4.9415252647369262e-02  4.9141454465404598e-02  4.4498297452725419e-02  3.7682524282243890e-02  5.0202502919647320e-02  5.4258397714741551e-02  5.5630419584961652e-05  5.4234326895225268e-05  2.7002410851739222e-02  2.9660942039184575e-02  3.8368991399731579e-02  2.3762794729763850e-02  5.1377580624387383e-03  1.0041960113447402e-02  1.8577006836669192e-02  2.6236460590756135e-02  6.5091642091336761e-04  2.6845109256430973e-02  2.1722106335252383e-04  1.4690849083236701e-02  4.4232994134650774e-02  1.1729935495615289e-03  5.0552424368809942e-05  2.1952593791691282e-04  4.6014438309138391e-05  1.8769675039765119e-04  3.8438320048533799e-04  6.0414962576856859e-04  9.6995539602778890e-04  1.0615154626290053e-03  1.1431406230116544e-02  4.5518672587310717e-02  4.7375669063881359e-04  2.4520528436005310e-04  3.9205932310516729e-02  4.4414285517742645e-02  3.4464825506718056e-04  3.6571651789552647e-04  4.8551146987456032e-04  3.1921057169334669e-04  3.2355993210680598e-02  2.7005335620344028e-02  3.7339265790280365e-02  3.7529136402529938e-02  5.1933402780407208e-02  3.1865662546649992e-02  2.9308285144935643e-02  4.6645951296412448e-02  3.8521926916091118e-02  3.7250699144321518e-02  1.8221512181959418e-02  4.1343311119396646e-02  2.6938341594347708e-02  3.2418433307620523e-02  5.9126467509488254e-03  4.0404081217036335e-02  2.7562446483700982e-03  3.5698030245571423e-02  1.0208109123600730e-02  4.5948449250873144e-02  3.0187019576742222e-04  3.5834476240800862e-02  5.3819559891086527e-02  4.9586756014563291e-02  1.1251772077182464e-02  8.3294644877959755e-03  2.0926862448077688e-04  2.5068076829235636e-04  5.1611601792096340e-02  4.0224034958261136e-02  4.1484628551011808e-02  4.2348827736301046e-04  5.1906799488828648e-02  4.5627318998540098e-02  3.7051101592932706e-02  3.1372672545424058e-04  2.6341189623476719e-04  4.5569955125268998e-04  1.9568396893670405e-04  4.4706775397791428e-04  9.5302475401584056e-05  3.6095259725121988e-02  3.9813191415069657e-02  3.4291752230592137e-02  4.6636654575549185e-05  3.3363153296394601e-04  5.2690291880160413e-04  4.7312488541676471e-05  1.6447010049174207e-04  1.4467742381246259e-04  5.2280070782184232e-02  1.2599088869766119e-03  1.4191192039833666e-04  3.2734716394842159e-04  3.0672458072533915e-04  2.1660093517977537e-04  4.6621950826245047e-02  4.7279872191376325e-02  4.6408425889966333e-02  3.0314711094359521e-02  2.6453288137635644e-02  4.5992180256715358e-02  6.7448413001865615e-04  1.0189251145581953e-02  7.4202401588097067e-04  3.4874561402566277e-02  2.8314863472163963e-02  9.8641519430027660e-03  4.5678594693637706e-02  1.6074579784708186e-02  7.8752991140443318e-03  4.3856927506667497e-02  3.7111634854887283e-02  2.9790133260501069e-04  2.4268928104740844e-04  4.6372327898075584e-02  1.5825819528066567e-03  5.2604102276577363e-04  4.5760021693230318e-02  4.8317649435586849e-02  4.5710107423057915e-02  3.8979176989179409e-02  1.0937107478018798e-04  4.5940867428434055e-02  3.4318793903148945e-02  2.6366656755866573e-02  2.107359351