<?xml version="1.0"?>
<VTKFile type="UnstructuredGrid"  version="0.1"  >
<UnstructuredGrid>
<Piece  NumberOfPoints="1515" NumberOfCells="2858">
<Points>
<DataArray  type="Float64"  NumberOfComponents="3"  format="ascii">-0.5 -0.0001 0  -0.5 -0.5 0  0.5 -0.5 0  0.5 0.5 0  -0.5 0.5 0  -0.5 0.0001 0  0 0.0001 0  0 -0.0001 0  0 -0.5 0  0 0.5 0  0.5 0 0  -0.25 0.0001 0  -0.25 0.5 0  -0.25 -0.0001 0  0.25 0.5 0  0.25 -0.5 0  0.2500374937493749 0.1875187468746875 0  0.5 -0.25 0  0.25002499 -0.125 0  -0.125 -0.25005 0  -0.125 0.25005 0  0.5 0.25 0  -0.25 -0.5 0  -0.5 -0.25005 0  -0.5 0.25005 0  0.125 -0.3124916691673332 0  0.125 0.3437443727884549 0  0.3187498332767468 -0.3187498332767468 0  -0.3125 -0.3125124974994999 0  -0.3125 0.1875875025005001 0  0.04436566007004419 0.1785185187387698 0  0.3437706224620182 0.3437706224620182 0  -0.359407810625422 0.3594296915637348 0  -0.359407810625422 -0.1406703084362652 0  0.08209948494863104 -0.1484533219292508 0  0.3281296842191969 0.03125624875007487 0  0.1612337437527647 0.0454945319044936 0  0.5 -0.125 0  0.3736573308633327 -0.1902100573489204 0  -0.05632383965282133 -0.1281636979131719 0  -0.1875249975 -0.37501249874975 0  -0.02161822989173764 0.354580025951059 0  -0.2160757009003203 -0.1393657085918785 0  -0.01783801249259284 -0.3526895391541273 0  -0.2160757009003203 0.3607342914081215 0  -0.125 0.0001 0  -0.125 -0.0001 0  -0.1875249975 0.1250875012502501 0  0.5 0.125 0  -0.375 0.0001 0  -0.375 -0.0001 0  -0.5 0.125075 0  -0.375 -0.5 0  -0.5 -0.375025 0  0.3828324180271084 0.1875 0  -0.125 0.5 0  0.5 -0.375 0  0.375 -0.5 0  -0.125 -0.5 0  -0.375 0.5 0  0.125 0.5 0  0.125 -0.5 0  0.5 0.375 0  0.375 0.5 0  -0.5 -0.125075 0  -0.5 0.375025 0  -0.06200365993838185 0.1102431244359298 0  0.3921286730834987 -0.07100003899567721 0  -0.001178265146973292 -0.2342725669761844 0  0.219639755882476 -0.3848202826230195 0  0.1764909845376315 -0.2113963654501196 0  0.2343901841136658 0.3031458088961128 0  0.1561195030924493 -0.06553680147678266 0  0.1485501800845649 0.1522005597879607 0  0.07430925316253632 -0.4062458345836666 0  0.1875 0.4218721863942274 0  0.0625 0.4218721863942275 0  0.2776974776570886 -0.2252166395728846 0  -0.2310132101974821 0.2556304703469177 0  -0.2310132101974821 -0.2444695296530824 0  -0.3906265628125469 -0.3906296862497968 0  -0.3906265628125469 0.1094703137502032 0  -0.2812687506255001 0.09383750062512503 0  -0.2812687506255002 -0.406262499374875 0  -0.4101472686723712 0.2071199254696213 0  -0.4101472686723712 -0.2929800745303787 0  0.2470275540227946 -0.02585328932041452 0  0.4068247800249947 0.09140209453477602 0  -0.1176406316218027 0.3957739114529177 0  0.4080574838155757 -0.2809016730332933 0  0.3125 -0.4219344228213859 0  0.4088486496673779 -0.4088486496673779 0  0.1167033063099591 0.2455046542815969 0  -0.02381261413756171 0.2533622281544139 0  0.02735543470987723 0.08802303626707711 0  0.3144655814479235 0.2551097933485553 0  0.2801337679615206 0.4118308473117793 0  0.4101587089138863 0.2773478512831281 0  -0.09689860681079282 -0.4078094624324944 0  0.213976519574722 -0.2941495474331945 0  -0.318965898965983 0.2781458178971435 0  -0.3125 0.4357826538464097 0  -0.318965898965983 -0.2219541821028565 0  -0.3125 -0.06431734615359029 0  -0.4357704230694522 0.3125375 0  -0.4357704230694522 -0.1875625 0  0.4114732283419867 0.4114732283419867 0  -0.4234646583494089 0.4234743507195528 0  -0.4375 -0.0001 0  -0.4375 0.0001 0  0.3164258563077259 0.1230517971377134 0  0.04931026741366369 0.300666438050672 0  0.2304865209107167 0.1009680687096636 0  0.02061587644269779 -0.08558486663800556 0  0.09390691211100699 -0.2329943594667239 0  0.08896107880644889 -0.006809950500825342 0  -0.1875 0.5 0  -0.1392552316473008 -0.09019077220175532 0  0.4170297537744737 0.008612617817243748 0  -0.4243694331702185 -0.08478222235936261 0  -0.1416933693607303 -0.1709733993077484 0  -0.09511425322415427 -0.3261090638251909 0  -0.04508670308176045 0.4323857419859515 0  -0.4375 -0.5 0  -0.1187189609291948 0.1687838380963837 0  0.3117722643778845 -0.07351457101062323 0  0.1513445599038777 -0.4251753449096755 0  0.04472177709904164 -0.3011105058468416 0  0.001740722226491711 -0.4250539693950984 0  -0.03075788851996441 0.178560406845558 0  0.1766313586052732 -0.1370243862559475 0  -0.0761550533906552 0.3051296889632589 0  -0.1485469487091727 0.3268133048125818 0  0.1930083860569673 0.2386735170085497 0  -0.0625 -0.0001 0  -0.0625 0.0001 0  -0.2878141094770303 -0.1320687430427478 0  -0.2875995151119595 0.3444544772933048 0  -0.24076159142329 -0.07161431170272106 0  -0.24076159142329 0.428485688297279 0  0.4263700347703773 -0.1373417231816959 0  -0.1856875708107399 0.19821478019016 0  0.09322297310683496 0.06338537237428626 0  -0.07466041728962823 -0.1981228067401687 0  0.009513123991135172 -0.1613319531958586 0  0.3092144166352111 -0.1625850961304104 0  0.3437404121717113 -0.2534277690952264 0  0.4379744025071972 -0.2176839612869874 0  -0.1297061011176702 0.07587858854060507 0  -0.1875 0.0001 0  -0.1875 -0.0001 0  -0.1875 -0.5 0  -0.1633110600051376 -0.3090045011162743 0  -0.21877499875025 0.06259999875025002 0  -0.21875 -0.4375124968750625 0  -0.25001874937525 -0.3437749968748749 0  -0.2500187493752501 0.1563250031251251 0  -0.5 -0.4375125 0  -0.5 0.06258749999999999 0  0.08904799960830578 -0.08015900599685086 0  0.4108334826406196 0.3444103681633853 0  -0.0625 -0.5 0  0.4414087098136942 0.2187640586098291 0  0.4382361660678968 0.150288432919798 0  -0.3125 0.0001 0  -0.3125 -0.0001 0  -0.3416336343815852 0.06187820768002609 0  -0.3125 -0.5 0  -0.3416336343815852 -0.4382217923199739 0  0.3168016282179152 0.1891009224226147 0  0.4368875345166075 -0.3446993355472595 0  -0.05975660640830217 -0.2683150418715617 0  0.3458703977041003 0.4362216268226822 0  0.5 0.0625 0  0.5 0.3125 0  0.5 -0.0625 0  0.5 -0.4375 0  0.4375 -0.5 0  -0.04197328552084911 -0.06329083152961786 0  0.2257906778195176 0.03586621568734723 0  0.2286857476565217 0.36951555023185 0  0.3548787707540964 -0.3727197121900284 0  -0.1790795964032311 0.4125871598709088 0  -0.0278086253378118 0.05696913583040467 0  -0.2640893654172825 -0.190631969293494 0  -0.1533594275423699 -0.440977335357388 0  0.5 0.4375 0  0.4375 0.5 0  0.1704903431553385 0.2986434949108457 0  0.08721475273820462 0.1287687476127682 0  0.1875 -0.5 0  -0.0625 0.5 0  -0.4375 0.5 0  -0.3125 0.5 0  0.0625 0.5 0  0.125 0.4359369935185367 0  0.3125 -0.5 0  0.1875 0.5 0  0.0625 -0.5 0  0.5 -0.3125 0  0.5 -0.1875 0  0.5 0.1875 0  0.3125 0.5 0  -0.5 -0.1875625 0  -0.5 -0.3125375 0  -0.5 0.1875625 0  -0.5 0.3125375 0  -0.5 0.4375125 0  -0.5 -0.06258749999999999 0  0.3624254104606854 -0.1274336378120225 0  0.1857642697873453 -0.01126882530927889 0  0.03669184495608396 0.2400031982312926 0  0.04068015303098439 0.3629261100764373 0  -0.3851162339112683 0.269026866774594 0  -0.3758332300807991 -0.1995452526923809 0  -0.446144648587372 -0.34378125 0  -0.446144648587372 0.15631875 0  0.3504998016039519 -0.02589861883840036 0  0.2836777321248879 0.07223256202683162 0  0.21875 -0.4466460035652602 0  0.1774501368185094 -0.3419431906700547 0  0.2592287652038449 -0.3368353496836486 0  -0.4486577479325732 0.09383124999999998 0  -0.40625 0.05134972627205531 0  -0.4486577479325732 -0.40626875 0  -0.40625 -0.4487502737279447 0  -0.07907884158578801 0.2127234227389962 0  0.2826672956396865 0.340725212476292 0  0.2552094419670018 0.2470909165729528 0  0.1235030570827048 -0.3722630563328095 0  -0.1765523267242401 -0.2196325740312749 0  -0.3653881707177284 -0.256399556620603 0  -0.3667881364584723 -0.08355066867835562 0  0.1448027058369495 -0.2589171712236736 0  0.2204190758351349 -0.1742931558527921 0  0.125595190811689 -0.1854735536931699 0  0.2751135960266025 -0.2821263988783404 0  0.04714559827497029 0.03095590907283807 0  -0.3694518448121097 0.4428768192088114 0  -0.4163493718954405 0.3665341424253254 0  0.2065677312659464 -0.0897482605048449 0  0.04596501084766122 -0.2039288085874983 0  -0.3678348759016452 -0.3352975447880205 0  -0.3331464162279717 -0.3812640910313448 0  -0.3678348759016452 0.1648024552119795 0  -0.3331464162279716 0.1188359089686553 0  0.006928352547084439 0.4089314103168539 0  -0.008754979675293741 -0.28865535545956 0  0.454824000777391 -0.03125 0  0.4453084397952883 -0.08555947234219879 0  0.0400389030608287 -0.3591593324500765 0  -0.3565047668221014 0.2214443888382642 0  -0.1767790649240408 0.276160039146296 0  -0.4407450517553578 0.2555055370068006 0  -0.4424041217249974 -0.2449977221857678 0  -0.0101841459589043 0.1278467808234489 0  0.1946666826231925 0.1831558471035277 0  0.1023041143695485 0.1885027832887665 0  0.1383943178482503 0.09688656085697314 0  0.1738321521953076 0.3687430643819201 0  0.09375 -0.4563154147117792 0  -0.2831024225358643 0.2351964925231401 0  -0.2621637468582121 -0.2899792135739121 0  -0.2423367266168128 0.3108531660207947 0  0.3858515397252176 -0.3293494555229365 0  -0.09921103529049136 0.4494480844437962 0  -0.1387217209722605 -0.3554699308920083 0  -0.06600083182100508 0.3836351847814501 0  0.1309954671830858 -0.1114321286398948 0  -0.09375 -0.04518048647049126 0  0.04208778762923838 -0.03517827620526504 0  -0.08165643227347709 0.05080163226699017 0  0.2987692351119484 -0.01319048554596328 0  -0.4136288823076366 -0.1379960981994732 0  -0.1856470434007142 -0.05707095126749213 0  -0.15625 0.4588983004055426 0  0.301492156088943 -0.3696020442065089 0  0.2261014656445051 -0.2255765688706129 0  -0.0254711816102797 0.3040308714413081 0  -0.2359814035109398 0.2051098885755096 0  -0.2142660728025848 -0.3074346058732286 0  -0.0444842016587006 -0.3987296650352232 0  -0.06299926340697812 -0.4476735265309565 0  0.2370119789310965 0.4463270361850639 0  0.1025408210352734 0.3898406831534957 0  0.02523186154102609 0.456121755814222 0  0.2703582881149408 -0.4522472093634566 0  0.34375 -0.460967211410693 0  0.1519529867048281 0.2096636028655708 0  -0.1028373102819492 0.3477334553616848 0  0.2543545123482477 -0.07525044338081299 0  0.4586232703312498 
[...]
<PointData  Scalars="f_184501"> 
<DataArray  type="Float64"  Name="f_184501"  format="ascii">1.4279188184191816e-06  1.3441967814478031e-04  1.3715925939882889e-01  5.9512216372006599e-02  1.2273858651263129e-03  3.2013568254921115e-07  9.9059625295516263e-01  9.6916109494121405e-01  1.1476605582439604e-02  1.7132636922374374e-02  2.7149827967939466e-02  9.6787422384816101e-04  8.4250796161677995e-04  1.0099206715225594e-03  4.3739866244496925e-02  2.9331636157518055e-02  5.1449407830959359e-02  3.8668738626123578e-02  5.1029979420563011e-02  3.2612173061652401e-03  3.7576566224901443e-03  4.4758765447719062e-02  1.8305053496287171e-03  5.0695629157182943e-04  5.6781800399819554e-04  3.2859842541296813e-02  3.6554084846156555e-02  4.9497329196604739e-02  1.9423469580597398e-04  3.3825480659337024e-04  3.9496919217373069e-02  4.8979319818825785e-02  1.3196996823727354e-04  3.4866220156816349e-04  5.4431459994034349e-02  3.8724711690696349e-02  5.6059247642551532e-02  3.0134311980422795e-02  4.5066884037396143e-02  8.9333040371160199e-03  2.0604931743802147e-03  1.5418366525577435e-02  1.8514554444019299e-04  1.2185054769331025e-02  1.1728450970673739e-03  2.7353329904446760e-03  2.6907736530178152e-03  1.8384124887650029e-04  3.2840449786200716e-02  1.1038635529288079e-04  1.1810214559721368e-04  9.1713095375833473e-05  5.7154403038686317e-04  5.2919946654797489e-04  4.3935250913206027e-02  5.7184267102171685e-03  5.1441306418432371e-02  4.4881416746845516e-02  5.1507743507870508e-03  1.0133350372695426e-04  3.2274955359114177e-02  1.9681658490666824e-02  5.5615554836263945e-02  5.0340395461130595e-02  1.0098791334853365e-04  1.1218397593552418e-03  7.4911678675030034e-03  3.7008693653980691e-02  1.8481632279772373e-02  3.5628886112603807e-02  5.1706269874571623e-02  4.7862238400734836e-02  6.1080501912372444e-02  5.9213185157987659e-02  1.9556375506472542e-02  3.9904816107570351e-02  2.5594537003797577e-02  5.1322502635640067e-02  4.3546673896139562e-04  4.5140945777456852e-04  2.8778254696727290e-04  2.9749120910335804e-04  4.3886636495865742e-04  7.5028784572229513e-04  3.6026516149478642e-04  2.0201215943862669e-04  4.2635565663667239e-02  3.7121018482278015e-02  5.7915744751309475e-03  4.7945786023330682e-02  4.1565546874182659e-02  5.7043868586931376e-02  4.3908802320172767e-02  1.6297584448961854e-02  6.1924209272302293e-02  4.9013731866561834e-02  4.6138765009154023e-02  4.7446058366995517e-02  5.7939930543418876e-03  4.4422191774863257e-02  1.8425973040931792e-04  1.0535620337669321e-04  2.0510918274155887e-04  3.7871429604511317e-04  4.4481545607472393e-04  2.5650581122074355e-04  5.1809799287157905e-02  4.1130839858011855e-04  1.6966332547283059e-05  1.3784188968242876e-05  4.4211157128666002e-02  2.7864748240015065e-02  4.9544067783925512e-02  5.3024473975066704e-02  3.8051322295145601e-02  1.2243356304239687e-01  2.5102486183539263e-03  3.9995228313287763e-04  3.3814119486451570e-02  1.4472755158848781e-04  1.3880202817202589e-03  5.8002945722707795e-03  1.2409855521105930e-02  3.2723631433215336e-04  2.6649909554040010e-03  4.1985020960614759e-02  2.5046075967805597e-02  2.1985717554467130e-02  1.2352943816105987e-02  1.6419976539914512e-02  5.9028163747574171e-02  8.7906241136091919e-03  3.2889069047720237e-03  5.0703865323265138e-02  7.4285481731752199e-03  9.2641959694537649e-03  3.2838795156819113e-04  1.9156941853680799e-04  4.4495228697922199e-04  9.0901294334201220e-04  3.7352035917668946e-02  6.2105579132288571e-04  9.0676394552622913e-02  7.1237374626204981e-03  2.7668848971552338e-02  4.8198735240658916e-02  4.9682983388459424e-02  4.1102966165239688e-02  5.1547688340759638e-04  1.7599429016453521e-03  1.8417749414958227e-03  3.2252103057396112e-03  2.3001670466049865e-03  5.6116108733940395e-04  1.8938901718061158e-03  7.3206165318677712e-04  2.4664145395614467e-04  2.8427112419916907e-04  1.3323245075235766e-05  8.3659159189136564e-02  5.0107472629175885e-02  8.0291442344107705e-03  4.2945052086782391e-02  3.8460558685887387e-02  3.9556612697007196e-04  4.2496137978213826e-04  3.1213681855256158e-04  1.0139641901988816e-03  5.4920245567515737e-04  4.7667838510090585e-02  5.1719477618950613e-02  8.9321231375856253e-03  4.8901945139622101e-02  2.8891357378424295e-02  5.0819599750100031e-02  2.7675024995082804e-02  7.4353202420998493e-02  6.7181721798473426e-02  9.8267395781605291e-03  4.4115221960713463e-02  4.4580703081257216e-02  4.9945997442775336e-02  2.6012145322747799e-03  1.7006813359077215e-02  2.2306603624139601e-04  3.7007291789826159e-03  5.8624857449313776e-02  5.4714556352315438e-02  4.4441433510358064e-02  6.3285702645200753e-02  2.4533177183098172e-02  1.0612754566672919e-02  5.6523359997921816e-04  1.0873520671223574e-04  2.4960907026915859e-02  3.3330862234664888e-02  3.5211527526791124e-02  3.9005269797076775e-02  1.5449675456359991e-02  4.4567826164995605e-02  3.4241268296728404e-02  3.8527175842682095e-02  4.7057573640185736e-02  2.9657820336359439e-04  6.1207670049962654e-04  2.8471661948740258e-04  8.8756007953522868e-04  1.2949449077002551e-03  1.5588756843327597e-05  4.1984956779102557e-02  4.7950997005470217e-02  2.9705452862607416e-02  2.4095881195817393e-02  3.0415562348870627e-04  2.7329711344271408e-04  3.1493440175824311e-04  2.2883202078591782e-04  3.7673552864248179e-02  4.2584162315069750e-02  2.9409426358799208e-02  3.5752916203595095e-02  4.4087079146620529e-02  1.0889027527872008e-04  1.1326205638299177e-04  3.3746095708084907e-04  4.2360416080979593e-04  7.3835191221540246e-03  4.7836383545611490e-02  5.0382138712237234e-02  2.6951568306221384e-02  9.9850364110871948e-04  1.7006341377249191e-04  2.9049891708273379e-04  4.2010251763415399e-02  5.4622526979813096e-02  5.1895071167806180e-02  4.9315120715570031e-02  2.5272880841463335e-01  9.5260764659355304e-05  3.5268810238246561e-04  5.3299882161032715e-02  3.2729878618051454e-02  1.6292523966566705e-04  3.2283156311149931e-04  3.9435582572496886e-04  4.2049922870144760e-04  1.8402739646448969e-02  1.4882133970945927e-02  3.0638466970346449e-02  3.2969387511214920e-02  1.8065401448135846e-02  3.4602222492515443e-04  1.6053335692264067e-03  4.0517206608275079e-04  2.9565684380240749e-04  2.5780311499527867e-02  5.4280298911170984e-02  5.0678564635116725e-02  6.6372896840956125e-02  4.0389619075770114e-02  1.8506437457716927e-02  2.2722205488613913e-04  3.7616279494657789e-04  5.2847603553609886e-04  5.1384088786836910e-02  7.4265249958631128e-03  3.5570993118664374e-03  1.0034820498847984e-02  6.6434598408641091e-02  1.5208640085129642e-03  2.0032469487237139e-01  1.8004661170544578e-03  3.9665329895311623e-02  2.5497518868221254e-04  6.1423643807531365e-04  3.8800657360648434e-03  4.5068606128879578e-02  5.1662156180726199e-02  1.5247194241503705e-02  2.4082199639690203e-04  9.8110671483691040e-04  9.0954536624751267e-03  7.8116107567377489e-03  4.3065827609688800e-02  3.1688065313331321e-02  2.0528108845352274e-02  3.3676044089878676e-02  4.1778820541428591e-02  5.1837232320604422e-02  6.5816647425539429e-03  4.6014208906443144e-02  3.3411125755185275e-02  3.9798348864445415e-02  4.0969375506777934e-02  3.0569109373760339e-02  1.2729269267019400e-03  5.6658004722767632e-04  1.2365940689727610e-03  3.0199911241083976e-04  3.9463793068384330e-02  4.7067631503482692e-02  4.8590622998665248e-02  8.9367655914657305e-05  6.1104608542720616e-02  5.5756267385504758e-02  4.4242920072909642e-02  2.6045246508850897e-02  4.9167202889922594e-02  1.5233918255121229e-02  3.6447039946781189e-02  4.6028236307052633e-02  2.4767481592778948e-02  6.1812712573334511e-02  3.1449733896108893e-05  5.5472309021429543e-02  4.7617032192217426e-02  7.6562448273943054e-02  4.9208421529515730e-04  5.2233065132867525e-02  5.5142279040430793e-02  5.3001661428311392e-02  4.9691152365652504e-02  1.2191982875311659e-03  3.7752968882113929e-03  1.1556539034778795e-03  3.0687992341025757e-04  5.0910455484833937e-02  1.0112985632747640e-04  3.2368600464339494e-04  2.7843220879770875e-05  9.6446472046848256e-03  1.7625299698765544e-04  4.6864038437410355e-02  1.9601927749045229e-03  4.9154373101309400e-02  1.4396873273999882e-03  4.8104796068491898e-02  4.8287991396279553e-02  8.0792849548703242e-03  3.3433709366913786e-04  5.5000724402299028e-02  4.9743201456599197e-02  3.7157165009416070e-04  3.1859945123482482e-04  1.5188241477166482e-02  2.5126645999465760e-02  3.2371633893768590e-04  2.4409134319181205e-03  9.5952842729326736e-04  3.9348349326794599e-04  3.8512549083791745e-04  2.6997586047326897e-03  4.6945671002233742e-02  1.5377814518511206e-04  2.1147056656856732e-04  5.5668159624320361e-03  8.3110022673530922e-04  3.4536530973679148e-04  1.9030615635252472e-03  1.9024301685250075e-04  6.9013383322795191e-04  3.5396627337446244e-04  5.5210904464168950e-04  2.5358543341136389e-04  3.7482226244095099e-04  1.6088004449339987e-04  5.1655577549606806e-02  3.6066069760308926e-02  2.8069788848420228e-02  4.4540229601678159e-02  3.9960132007332672e-02  7.7686206807157016e-02  4.4696787581681489e-02  2.1013503612069606e-02  3.6660939753487803e-02  4.4343145784434865e-02  4.8633670516641338e-02  2.8960670744398353e-04  5.1589646313735089e-02  7.5927590886048862e-02  6.9792245175610678e-03  7.5667626651968606e-03  9.3723191654081521e-04  7.8940199064460521e-04  3.8287244401446485e-02  2.0406767530049011e-02  6.0059743743508164e-02  4.0928098839122309e-02  2.5141301739268405e-04  3.1089686367523607e-02  2.2363082529752921e-02  3.5272635531962505e-02  3.0635309499474628e-02  5.0326600137349020e-02  3.8454253101176564e-03  9.0544108200412191e-04  2.3632697979493052e-04  7.2003248486809737e-05  3.3787930347329673e-02  4.8881513991618955e-02  4.9803069558783428e-02  4.6681199850063956e-02  3.4384518922814584e-02  3.9532375345554989e-02  2.5128763569772627e-02  4.0967808062733660e-02  3.6652919546445790e-02  5.4317647503721943e-02  1.3368323327064724e-04  6.9791680366686616e-04  5.1592598149327693e-04  1.1732929621247262e-02  2.7117535246270612e-04  4.0800214153745323e-02  9.6618204992091287e-03  1.0554420692029016e-02  4.3225910351103097e-02  5.2736613817917248e-03  3.6882529593382160e-02  7.0609886601917613e-04  2.0903594488011438e-03  4.0275356823440826e-04  1.3655547703889350e-02  4.8293636015083796e-02  3.4092643916573594e-02  1.6561996093912582e-02  2.2685976852400971e-03  4.0784466126760943e-05  2.3128119511935894e-04  3.9288963770215658e-02  3.5210366458447596e-03  1.5842380125832534e-01  2.2045938961590603e-02  2.1654125468686069e-02  1.0518314826664340e-02  2.0113946870084682e-04  3.4021743880514730e-04  5.7295875187262563e-02  2.6263311697944877e-04  8.0948241621420366e-04  4.0174271139461350e-02  5.9179940621275202e-05  4.1425994450368798e-04  1.1008652078350793e-04  7.9000445303961902e-04  4.2243387819028368e-04  4.4244675744529970e-02  1.4337642635695065e-02  4.5799996830201126e-02  5.9433603691176326e-02  2.2221028394798969e-04  5.2256235063588279e-02  4.9239124261640517e-02  4.7586714303093455e-02  2.9932120034297118e-04  4.0622429703644422e-04  2.2765579171756450e-04  4.1675528387694727e-02  3.3921364939211600e-02  4.4831693884814339e-02  4.1809082455595191e-02  1.3868003246471776e-02  1.2606334950709126e-03  7.1673921611782279e-02  1.2015179252347482e-03  4.6885549929940588e-02  5.8988691554378643e-02  6.8721884481855913e-02  2.0896197258533414e-03  1.2220850069637548e-02  2.9102191008693924e-02  1.4149035786841551e-02  2.6636925374684257e-04  5.0361096601482941e-02  2.4814475844789759e-04  3.6562505564351207e-02  3.2925533212073192e-02  1.1155208774725024e-01  5.0583010023897972e-02  6.0240753030854660e-02  5.4811031017636395e-02  5.6061573013393089e-02  2.4383480607566514e-03  2.9061364383116111e-02  5.9574580043042925e-02  1.6563716830424489e-02  5.0302861436524902e-03  3.6352166358470765e-02  3.9147440697494068e-02  1.5342670077317939e-02  8.3937955929097915e-03  2.2993100108189821e-02  1.7050667419083249e-04  5.1617698206994709e-04  4.7845274793892022e-02  2.9597124072117238e-02  1.7054921207930252e-03  2.2409023029028365e-04  2.9324713925251512e-04  5.6212300064710768e-03  6.9644172448650676e-02  6.0471465067941611e-03  1.5654092864309001e-02  4.9078114462149963e-02  3.4037592566873998e-02  2.8772928260468398e-04  1.0109562855909673e-01  1.1149597084683536e-03  8.4857011840544982e-04  3.9764885721012007e-02  4.1773229269865167e-02  4.8655677316439105e-02  2.6512620902214066e-04  7.3895028594763031e-04  2.1800354824877551e-04  4.1038912466229448e-04  5.4936847288307217e-04  2.9565579619830642e-04  6.5709073118019550e-05  9.0655099558966376e-02  4.1059421980055695e-02  4.6413348110859579e-02  4.7152286138019105e-02  1.2914330713071418e-02  3.5813532847380342e-02  4.8829712587397302e-02  4.4078955072526533e-03  1.1756256548230381e-02  1.1985184102432624e-01  3.1950870657778850e-03  3.6394919260375747e-03  1.6425790001545239e-04  2.4517300149985672e-04  5.4678263054009160e-04  4.0121825188393358e-04  4.1262543213851512e-02  1.6396047445302363e-04  4.7611213961869750e-02  5.0143270372328547e-02  5.0269492172152493e-02  4.8730169259214647e-02  5.0709610398358279e-02  4.6576413761101769e-02  4.9787129054511360e-02  5.3654405821392519e-02  4.7791650560833170e-02  4.4725244591699499e-02  4.0983872960253347e-02  4.8871209691200838e-02  2.8904144844499702e-02  2.6345341163987944e-04  1.3441453988889708e-03  1.3455196481391967e-03  9.8894154825627037e-04  5.7315904908905854e-02  3.7056625203912310e-04  7.1387474195734439e-04  4.6736863807975382e-04  8.6379575687160206e-04  3.5840972319080641e-04  1.2616286088345874e-03  2.9397746580033012e-03  2.4076059510632257e-03  4.1006172508604400e-03  1.9598248721205479e-03  5.2685053568309222e-02  1.2347274473905562e-03  1.1996080255952607e-02  5.9653881188124647e-02  5.3575277804156444e-03  2.7811741537131798e-02  1.8207419582456038e-03  4.4856299772229741e-02  7.6042159209973063e-04  2.1602762660447638e-04  2.3832395560359780e-04  4.0578242613489364e-02  3.3873091598536909e-03  3.7087915991137088e-02  7.3155366992632670e-02  6.6467011981992022e-02  9.6895124650555851e-03  4.3289589692274824e-02  3.2097214121830071e-04  8.4172862979535923e-04  3.5268491158273129e-03  3.4310948053784254e-03  5.0670282114781785e-02  8.1822215661707318e-03  4.7219615702596626e-02  2.7236209280179877e-02  3.1724800492569587e-02  5.6604358479640675e-02  5.0692874169002415e-02  6.0219425917320359e-02  4.9275432258073402e-03  2.6917911547800024e-04  3.7612797089950286e-04  3.4926553480014685e-04  3.8105964638451867e-02  3.4963554126338371e-02  5.0414517663839156e-02  2.1981658274737352e-02  4.2080498346876216e-02  5.5689733080064065e-03  4.6828813052085680e-02  4.1826423737116848e-02  3.2124660747317631e-02  6.5014703913180731e-03  1.0192416631767027e-02  3.6037134046510537e-02  4.1702609144166798e-02  4.4401973815961865e-02  4.5635430571472069e-02  1.3241332125136743e-02  5.2262675306341966e-01  1.3502384615407183e-03  6.6508949613446749e-04  6.8603593800407739e-04  5.8328132585886436e-03  1.9893085972837391e-04  4.6031915480271399e-02  2.2580554409884407e-02  5.2856418552862580e-04  4.1868957728286748e-04  2.1949655522539684e-04  7.6208027239942064e-02  5.1245139051257521e-02  6.4428634315497377e-02  5.9137538640660517e-04  4.2006070315301746e-04  4.3052108791868617e-04  4.2346997877425657e-04  4.4833065198147870e-03  4.8759979362887958e-02  4.3314029610869338e-02  4.7378668672451538e-02  5.8626914041295822e-04  4.9536093815307741e-02  1.1002777563879928e-03  4.6458414598436880e-02  4.6095730452954481e-02  3.1069185374837743e-02  2.0565348266144198e-03  6.2690244125831185e-02  3.5562403065333793e-02  1.5061609135906941e-03  4.2591519859231689e-06  4.4020252692213149e-06  3.2602366522910644e-06  3.6042884046729476e-04  9.8003123971752027e-04  2.2363280658575790e-04  1.6500476383475435e-04  3.2017397935009370e-06  1.2999115912292919e-02  9.4460909446617974e-02  1.1704584998961645e-01  4.1628767056569510e-02  7.0341092448100370e-04  2.2894134579197575e-02  3.6811247678962371e-02  2.9993240973317212e-02  3.1930666111661732e-02  4.7661681731407918e-02  4.6577296181718103e-02  5.2591344688132015e-02  4.9557032057782051e-02  2.0403337871305622e-02  4.8328117869448656e-02  3.9721408473743655e-02  3.3587983332259971e-02  5.9320042558365534e-04  1.6548055282871647e-03  3.8092944023436952e-03  2.3631892598381570e-03  2.2382446872492318e-03  1.3895803499839805e-03  5.7896367321881415e-02  6.0706658064577108e-03  2.3973245919257493e-04  2.7063242580176313e-04  2.5179789807542696e-04  5.3865895949915393e-02  2.6807549525385106e-04  2.1199772542293752e-04  2.0973198064399968e-04  1.9552792969326948e-02  2.6095051450934284e-02  2.9539916458555752e-02  1.5383123440576246e-04  5.3034756098152128e-02  6.4203023015774950e-05  3.8786747092521843e-03  3.1930774931110614e-02  1.4593136973472829e-04  3.6449800158748366e-04  4.8797219172484557e-02  3.6870402797245620e-02  2.8716760395819777e-02  3.6032967136254042e-02  3.8223444110338392e-04  3.4492491403957627e-04  5.3365238338586425e-02  5.2347749756707258e-02  4.7799740699103199e-02  4.1338387456662011e-02  5.2603289799296293e-02  5.8432878193288143e-02  4.5037159353915835e-05  4.5849897772407001e-05  2.7704586117530492e-02  3.0655232970164512e-02  3.9709796558787640e-02  2.1071163690758034e-02  3.7701625147549427e-03  7.9224952450604059e-03  1.7579783061216405e-02  2.7072426016034871e-02  4.4977685544819583e-04  2.6782158406323770e-02  2.9754507654191720e-04  1.3445402153719980e-02  4.5455473912553016e-02  1.2740724995218228e-03  4.1385780788733585e-05  1.8690450353337228e-04  3.9565758155019530e-05  1.6898840662206058e-04  4.2175869541051834e-04  6.0071795785024873e-04  1.0075331193273801e-03  1.1384549634291402e-03  9.1499434814100999e-03  4.7834248429917840e-02  4.7329343991050197e-04  2.3426515887493049e-04  4.0158282128159230e-02  4.6606240191394380e-02  3.5409982127727364e-04  3.9338863604612662e-04  3.3450764300013789e-04  2.2717074852304417e-04  2.8843847376693332e-02  2.2397628211073072e-02  3.2730913567477260e-02  4.0357835564812351e-02  5.5864858501245035e-02  3.1152549137566987e-02  2.9505836863554603e-02  4.9189891642769386e-02  4.1829593300474630e-02  4.0189625013557315e-02  1.5494660526280356e-02  4.5187741265204119e-02  2.4370345052145335e-02  3.4348404564045240e-02  4.6991432839933742e-03  4.3787811927869499e-02  1.8496803134314063e-03  3.8007095868117236e-02  8.8684922674007512e-03  4.8324302658474733e-02  3.2053901667231072e-04  3.8075603341118515e-02  6.6892764472354441e-02  5.3468411525041747e-02  9.0545314431392347e-03  7.0710048436187977e-03  2.8651815482051105e-04  2.6530401020497977e-04  2.6522753274722307e-02  4.3720246834747602e-02  4.5792368970842198e-02  2.4982678725629995e-04  5.5301131797895628e-02  4.8823304538231298e-02  3.5297540957798475e-02  3.2256094825394233e-04  2.2823040652880411e-04  3.5151330711281041e-04  1.8578816028820997e-04  3.6432614635725162e-04  8.6178329946522632e-05  3.6295213520044403e-02  4.0296368042943911e-02  3.3520957596270787e-02  4.0821129555519532e-05  3.4398701983103793e-04  3.8065988932059778e-04  4.0898554008262585e-05  1.9480208173896238e-04  1.2605889538657553e-04  5.6432206167216739e-02  7.3908885210802135e-04  1.5079776587128481e-04  3.8396707131052674e-04  3.8305652820709861e-04  1.9115588632499377e-04  4.9215347322683373e-02  5.1029927900158818e-02  4.9715166145360409e-02  2.8883215140321394e-02  2.5411439501009731e-02  4.8204304189962605e-02  6.3731139317325491e-04  5.2986446084314145e-03  4.2779272989760077e-04  3.7149819898058954e-02  2.9717501739294726e-02  7.4217205241137035e-03  4.8807139011284972e-02  1.0727144416862185e-02  5.1014918827441942e-03  5.0793507463512938e-02  3.9562399004772972e-02  3.1183765113549207e-04  2.5691871223561046e-04  4.8783256848741366e-02  1.1349306796600723e-03  4.9491529526301051e-04  4.8295020842917681e-02  4.6560113535933256e-02  4.4950151592480045e-02  4.1446593694058051e-02  1.4443556334316112e-04  4.8618281887665628e-02  3.2259464545900111e-02  2.6166794704088694e-02  1.913104675