<?xml version="1.0"?>
<VTKFile type="UnstructuredGrid"  version="0.1"  >
<UnstructuredGrid>
<Piece  NumberOfPoints="1515" NumberOfCells="2858">
<Points>
<DataArray  type="Float64"  NumberOfComponents="3"  format="ascii">-0.5 -0.0001 0  -0.5 -0.5 0  0.5 -0.5 0  0.5 0.5 0  -0.5 0.5 0  -0.5 0.0001 0  0 0.0001 0  0 -0.0001 0  0 -0.5 0  0 0.5 0  0.5 0 0  -0.25 0.0001 0  -0.25 0.5 0  -0.25 -0.0001 0  0.25 0.5 0  0.25 -0.5 0  0.2500374937493749 0.1875187468746875 0  0.5 -0.25 0  0.25002499 -0.125 0  -0.125 -0.25005 0  -0.125 0.25005 0  0.5 0.25 0  -0.25 -0.5 0  -0.5 -0.25005 0  -0.5 0.25005 0  0.125 -0.3124916691673332 0  0.125 0.3437443727884549 0  0.3187498332767468 -0.3187498332767468 0  -0.3125 -0.3125124974994999 0  -0.3125 0.1875875025005001 0  0.04436566007004419 0.1785185187387698 0  0.3437706224620182 0.3437706224620182 0  -0.359407810625422 0.3594296915637348 0  -0.359407810625422 -0.1406703084362652 0  0.08209948494863104 -0.1484533219292508 0  0.3281296842191969 0.03125624875007487 0  0.1612337437527647 0.0454945319044936 0  0.5 -0.125 0  0.3736573308633327 -0.1902100573489204 0  -0.05632383965282133 -0.1281636979131719 0  -0.1875249975 -0.37501249874975 0  -0.02161822989173764 0.354580025951059 0  -0.2160757009003203 -0.1393657085918785 0  -0.01783801249259284 -0.3526895391541273 0  -0.2160757009003203 0.3607342914081215 0  -0.125 0.0001 0  -0.125 -0.0001 0  -0.1875249975 0.1250875012502501 0  0.5 0.125 0  -0.375 0.0001 0  -0.375 -0.0001 0  -0.5 0.125075 0  -0.375 -0.5 0  -0.5 -0.375025 0  0.3828324180271084 0.1875 0  -0.125 0.5 0  0.5 -0.375 0  0.375 -0.5 0  -0.125 -0.5 0  -0.375 0.5 0  0.125 0.5 0  0.125 -0.5 0  0.5 0.375 0  0.375 0.5 0  -0.5 -0.125075 0  -0.5 0.375025 0  -0.06200365993838185 0.1102431244359298 0  0.3921286730834987 -0.07100003899567721 0  -0.001178265146973292 -0.2342725669761844 0  0.219639755882476 -0.3848202826230195 0  0.1764909845376315 -0.2113963654501196 0  0.2343901841136658 0.3031458088961128 0  0.1561195030924493 -0.06553680147678266 0  0.1485501800845649 0.1522005597879607 0  0.07430925316253632 -0.4062458345836666 0  0.1875 0.4218721863942274 0  0.0625 0.4218721863942275 0  0.2776974776570886 -0.2252166395728846 0  -0.2310132101974821 0.2556304703469177 0  -0.2310132101974821 -0.2444695296530824 0  -0.3906265628125469 -0.3906296862497968 0  -0.3906265628125469 0.1094703137502032 0  -0.2812687506255001 0.09383750062512503 0  -0.2812687506255002 -0.406262499374875 0  -0.4101472686723712 0.2071199254696213 0  -0.4101472686723712 -0.2929800745303787 0  0.2470275540227946 -0.02585328932041452 0  0.4068247800249947 0.09140209453477602 0  -0.1176406316218027 0.3957739114529177 0  0.4080574838155757 -0.2809016730332933 0  0.3125 -0.4219344228213859 0  0.4088486496673779 -0.4088486496673779 0  0.1167033063099591 0.2455046542815969 0  -0.02381261413756171 0.2533622281544139 0  0.02735543470987723 0.08802303626707711 0  0.3144655814479235 0.2551097933485553 0  0.2801337679615206 0.4118308473117793 0  0.4101587089138863 0.2773478512831281 0  -0.09689860681079282 -0.4078094624324944 0  0.213976519574722 -0.2941495474331945 0  -0.318965898965983 0.2781458178971435 0  -0.3125 0.4357826538464097 0  -0.318965898965983 -0.2219541821028565 0  -0.3125 -0.06431734615359029 0  -0.4357704230694522 0.3125375 0  -0.4357704230694522 -0.1875625 0  0.4114732283419867 0.4114732283419867 0  -0.4234646583494089 0.4234743507195528 0  -0.4375 -0.0001 0  -0.4375 0.0001 0  0.3164258563077259 0.1230517971377134 0  0.04931026741366369 0.300666438050672 0  0.2304865209107167 0.1009680687096636 0  0.02061587644269779 -0.08558486663800556 0  0.09390691211100699 -0.2329943594667239 0  0.08896107880644889 -0.006809950500825342 0  -0.1875 0.5 0  -0.1392552316473008 -0.09019077220175532 0  0.4170297537744737 0.008612617817243748 0  -0.4243694331702185 -0.08478222235936261 0  -0.1416933693607303 -0.1709733993077484 0  -0.09511425322415427 -0.3261090638251909 0  -0.04508670308176045 0.4323857419859515 0  -0.4375 -0.5 0  -0.1187189609291948 0.1687838380963837 0  0.3117722643778845 -0.07351457101062323 0  0.1513445599038777 -0.4251753449096755 0  0.04472177709904164 -0.3011105058468416 0  0.001740722226491711 -0.4250539693950984 0  -0.03075788851996441 0.178560406845558 0  0.1766313586052732 -0.1370243862559475 0  -0.0761550533906552 0.3051296889632589 0  -0.1485469487091727 0.3268133048125818 0  0.1930083860569673 0.2386735170085497 0  -0.0625 -0.0001 0  -0.0625 0.0001 0  -0.2878141094770303 -0.1320687430427478 0  -0.2875995151119595 0.3444544772933048 0  -0.24076159142329 -0.07161431170272106 0  -0.24076159142329 0.428485688297279 0  0.4263700347703773 -0.1373417231816959 0  -0.1856875708107399 0.19821478019016 0  0.09322297310683496 0.06338537237428626 0  -0.07466041728962823 -0.1981228067401687 0  0.009513123991135172 -0.1613319531958586 0  0.3092144166352111 -0.1625850961304104 0  0.3437404121717113 -0.2534277690952264 0  0.4379744025071972 -0.2176839612869874 0  -0.1297061011176702 0.07587858854060507 0  -0.1875 0.0001 0  -0.1875 -0.0001 0  -0.1875 -0.5 0  -0.1633110600051376 -0.3090045011162743 0  -0.21877499875025 0.06259999875025002 0  -0.21875 -0.4375124968750625 0  -0.25001874937525 -0.3437749968748749 0  -0.2500187493752501 0.1563250031251251 0  -0.5 -0.4375125 0  -0.5 0.06258749999999999 0  0.08904799960830578 -0.08015900599685086 0  0.4108334826406196 0.3444103681633853 0  -0.0625 -0.5 0  0.4414087098136942 0.2187640586098291 0  0.4382361660678968 0.150288432919798 0  -0.3125 0.0001 0  -0.3125 -0.0001 0  -0.3416336343815852 0.06187820768002609 0  -0.3125 -0.5 0  -0.3416336343815852 -0.4382217923199739 0  0.3168016282179152 0.1891009224226147 0  0.4368875345166075 -0.3446993355472595 0  -0.05975660640830217 -0.2683150418715617 0  0.3458703977041003 0.4362216268226822 0  0.5 0.0625 0  0.5 0.3125 0  0.5 -0.0625 0  0.5 -0.4375 0  0.4375 -0.5 0  -0.04197328552084911 -0.06329083152961786 0  0.2257906778195176 0.03586621568734723 0  0.2286857476565217 0.36951555023185 0  0.3548787707540964 -0.3727197121900284 0  -0.1790795964032311 0.4125871598709088 0  -0.0278086253378118 0.05696913583040467 0  -0.2640893654172825 -0.190631969293494 0  -0.1533594275423699 -0.440977335357388 0  0.5 0.4375 0  0.4375 0.5 0  0.1704903431553385 0.2986434949108457 0  0.08721475273820462 0.1287687476127682 0  0.1875 -0.5 0  -0.0625 0.5 0  -0.4375 0.5 0  -0.3125 0.5 0  0.0625 0.5 0  0.125 0.4359369935185367 0  0.3125 -0.5 0  0.1875 0.5 0  0.0625 -0.5 0  0.5 -0.3125 0  0.5 -0.1875 0  0.5 0.1875 0  0.3125 0.5 0  -0.5 -0.1875625 0  -0.5 -0.3125375 0  -0.5 0.1875625 0  -0.5 0.3125375 0  -0.5 0.4375125 0  -0.5 -0.06258749999999999 0  0.3624254104606854 -0.1274336378120225 0  0.1857642697873453 -0.01126882530927889 0  0.03669184495608396 0.2400031982312926 0  0.04068015303098439 0.3629261100764373 0  -0.3851162339112683 0.269026866774594 0  -0.3758332300807991 -0.1995452526923809 0  -0.446144648587372 -0.34378125 0  -0.446144648587372 0.15631875 0  0.3504998016039519 -0.02589861883840036 0  0.2836777321248879 0.07223256202683162 0  0.21875 -0.4466460035652602 0  0.1774501368185094 -0.3419431906700547 0  0.2592287652038449 -0.3368353496836486 0  -0.4486577479325732 0.09383124999999998 0  -0.40625 0.05134972627205531 0  -0.4486577479325732 -0.40626875 0  -0.40625 -0.4487502737279447 0  -0.07907884158578801 0.2127234227389962 0  0.2826672956396865 0.340725212476292 0  0.2552094419670018 0.2470909165729528 0  0.1235030570827048 -0.3722630563328095 0  -0.1765523267242401 -0.2196325740312749 0  -0.3653881707177284 -0.256399556620603 0  -0.3667881364584723 -0.08355066867835562 0  0.1448027058369495 -0.2589171712236736 0  0.2204190758351349 -0.1742931558527921 0  0.125595190811689 -0.1854735536931699 0  0.2751135960266025 -0.2821263988783404 0  0.04714559827497029 0.03095590907283807 0  -0.3694518448121097 0.4428768192088114 0  -0.4163493718954405 0.3665341424253254 0  0.2065677312659464 -0.0897482605048449 0  0.04596501084766122 -0.2039288085874983 0  -0.3678348759016452 -0.3352975447880205 0  -0.3331464162279717 -0.3812640910313448 0  -0.3678348759016452 0.1648024552119795 0  -0.3331464162279716 0.1188359089686553 0  0.006928352547084439 0.4089314103168539 0  -0.008754979675293741 -0.28865535545956 0  0.454824000777391 -0.03125 0  0.4453084397952883 -0.08555947234219879 0  0.0400389030608287 -0.3591593324500765 0  -0.3565047668221014 0.2214443888382642 0  -0.1767790649240408 0.276160039146296 0  -0.4407450517553578 0.2555055370068006 0  -0.4424041217249974 -0.2449977221857678 0  -0.0101841459589043 0.1278467808234489 0  0.1946666826231925 0.1831558471035277 0  0.1023041143695485 0.1885027832887665 0  0.1383943178482503 0.09688656085697314 0  0.1738321521953076 0.3687430643819201 0  0.09375 -0.4563154147117792 0  -0.2831024225358643 0.2351964925231401 0  -0.2621637468582121 -0.2899792135739121 0  -0.2423367266168128 0.3108531660207947 0  0.3858515397252176 -0.3293494555229365 0  -0.09921103529049136 0.4494480844437962 0  -0.1387217209722605 -0.3554699308920083 0  -0.06600083182100508 0.3836351847814501 0  0.1309954671830858 -0.1114321286398948 0  -0.09375 -0.04518048647049126 0  0.04208778762923838 -0.03517827620526504 0  -0.08165643227347709 0.05080163226699017 0  0.2987692351119484 -0.01319048554596328 0  -0.4136288823076366 -0.1379960981994732 0  -0.1856470434007142 -0.05707095126749213 0  -0.15625 0.4588983004055426 0  0.301492156088943 -0.3696020442065089 0  0.2261014656445051 -0.2255765688706129 0  -0.0254711816102797 0.3040308714413081 0  -0.2359814035109398 0.2051098885755096 0  -0.2142660728025848 -0.3074346058732286 0  -0.0444842016587006 -0.3987296650352232 0  -0.06299926340697812 -0.4476735265309565 0  0.2370119789310965 0.4463270361850639 0  0.1025408210352734 0.3898406831534957 0  0.02523186154102609 0.456121755814222 0  0.2703582881149408 -0.4522472093634566 0  0.34375 -0.460967211410693 0  0.1519529867048281 0.2096636028655708 0  -0.1028373102819492 0.3477334553616848 0  0.2543545123482477 -0.07525044338081299 0  0.4586232703312498 
[...]
<PointData  Scalars="f_184501"> 
<DataArray  type="Float64"  Name="f_184501"  format="ascii">1.5238523960204425e-06  2.2357032925457757e-04  1.0184609825728339e-01  4.3077439068927574e-02  8.8095954648697162e-04  3.2801735248470992e-07  3.4343035032795372e-01  3.4412922391608070e-01  1.0683682192069412e-02  1.6702430904181238e-02  2.1355742743725922e-02  8.7005342055626296e-04  1.2005363935660271e-03  9.7266263022834066e-04  3.4631064238939586e-02  2.3501276192917274e-02  3.7022928360920145e-02  2.8024893145239770e-02  3.5586731388046494e-02  4.4539456834655315e-03  5.1828850498043108e-03  3.3149886829335236e-02  2.1358579600018498e-03  4.5656126760455757e-04  4.6925262093348201e-04  2.7756727237463610e-02  3.0958660146082402e-02  3.6883192951312170e-02  2.6640911792025999e-04  1.8383400473190022e-04  3.6185669548614616e-02  3.6626329473880198e-02  5.6676890578927692e-05  2.6982121203465470e-04  4.3946416274902554e-02  2.8940731317591874e-02  3.5835782813961173e-02  2.2783402135318969e-02  3.2860867176295182e-02  1.4684975452813682e-02  2.5224709597405880e-03  1.5710452617349668e-02  2.0493765404132816e-04  1.2303453783631457e-02  1.6416581910111928e-03  2.4759581350853434e-03  2.5092516589710874e-03  3.0276138868499524e-04  2.5327105232904268e-02  1.0655964690650885e-04  1.2098376623121393e-04  8.6019217543880931e-05  7.4075617703924391e-04  4.0035543125259161e-04  3.2444141840209641e-02  6.4398460008716933e-03  3.7536847468987042e-02  3.4108686288611287e-02  5.3169169215672709e-03  4.0282271125135470e-05  2.7897389378999878e-02  1.6829762050866892e-02  4.0388771276753929e-02  3.7703056159511604e-02  1.0231037415900146e-04  8.4199899163200280e-04  1.4133997463450803e-02  2.7699172429609752e-02  1.9597852330405070e-02  2.8370972389840477e-02  3.8611244138461336e-02  3.6636778883752129e-02  3.8521368186392763e-02  4.1988830273319823e-02  1.7511344808203717e-02  3.2644094218916626e-02  2.3367473227906433e-02  3.7277130551263672e-02  6.8515584302828163e-04  6.8317942143892262e-04  3.3302818006781143e-04  2.3927343113375773e-04  2.8436759643477152e-04  9.9727451001407311e-04  2.5106335627093131e-04  1.4086158602043771e-04  3.0535136325014603e-02  2.8026658282034354e-02  6.6501593731853699e-03  3.5164206353013774e-02  3.1905132026303400e-02  4.2408110133142073e-02  3.5857957011797240e-02  1.7759926034665845e-02  5.8506125494254435e-02  3.6127718855464133e-02  3.5729415836348151e-02  3.5008685170690251e-02  6.1844384240938820e-03  3.4360932661773480e-02  1.1012713826931627e-04  2.0233977788357353e-04  1.3928105281767948e-04  3.2049721333396995e-04  3.0062003758411798e-04  2.1102458767007450e-04  3.8290067437971260e-02  2.4657985787945809e-04  1.8098037513428770e-05  1.4091870019133027e-05  3.2228779212442452e-02  2.5778670895582632e-02  3.4590589914932218e-02  5.8307200287332432e-02  3.2649287083786720e-02  5.0180104085744234e-02  3.1097016661365464e-03  8.4749608689527786e-04  2.5827750849450416e-02  1.3625410892724937e-04  2.4920565404257860e-03  6.6647801380209579e-03  1.2754903883830507e-02  4.2781953971074535e-04  4.5406484621999957e-03  3.0591177520455381e-02  2.1099672079459252e-02  2.0756379101888805e-02  1.1812648806535911e-02  2.0258847541345073e-02  4.0571271045268198e-02  1.0064662502649426e-02  4.2071979091629751e-03  3.8175822730736601e-02  7.2572023818574883e-03  7.8815307608720176e-03  2.1123159969103835e-04  2.8909282406771258e-04  3.1166754446129323e-04  1.2801993821770414e-03  2.7736982064859039e-02  1.1294351916149245e-03  5.1921438438154714e-02  9.6754081884461371e-03  3.0716380725890783e-02  3.4584262367320429e-02  3.6341473084876369e-02  3.0144586686986531e-02  1.0378222561605061e-03  1.5350288695314086e-03  1.7382603447390641e-03  3.5153982643650605e-03  2.9908601404530972e-03  3.6865118086985968e-04  2.2371267283299353e-03  1.0164083798366497e-03  1.3851040763496913e-04  1.9859543604411610e-04  1.3415516068639045e-05  5.2975413259000972e-02  3.6995998225692710e-02  7.8378505351822114e-03  3.1936640482312040e-02  2.8951836885050441e-02  3.6619921660582718e-04  4.2194627127153575e-04  2.5598081144288950e-04  1.2623814843149184e-03  7.2664872061699737e-04  3.4694621101535379e-02  3.8015357577708374e-02  1.0324769378369660e-02  3.6937627826564762e-02  2.2664611004129091e-02  3.7155718437856332e-02  2.1462659763970170e-02  5.5044699874806834e-02  4.9855106120640695e-02  2.1255846699092418e-02  3.1172247418033108e-02  3.5147344435198527e-02  3.7368591323635569e-02  3.2528642444426699e-03  3.8907997165973388e-02  1.9681129408866141e-04  4.0505282470059741e-03  4.2453409165251324e-02  4.0122217896401031e-02  3.5408913861334303e-02  4.7262181657203119e-02  2.0251365866175080e-02  1.1067431391459614e-02  3.6001706718851410e-04  2.1982449165708156e-04  2.2786337468541636e-02  2.8644039763736650e-02  2.7463633486341062e-02  3.2057081966698132e-02  1.3740727200952029e-02  3.2222814649245382e-02  2.5228810986135539e-02  2.9060649336158633e-02  3.6161487764138966e-02  2.8459238081159804e-04  5.1449609870687408e-04  2.5011557528940007e-04  6.9551429420069153e-04  9.4746684922561832e-04  1.6464637507325816e-05  3.0737284932036361e-02  3.2053687232454060e-02  2.8155918203183986e-02  2.2511057052290857e-02  1.6929815204815807e-04  1.8728716419367486e-04  2.4225220762201456e-04  1.8611008336774898e-04  2.8237175214635625e-02  3.1012750534649493e-02  2.3789169269714486e-02  2.8981443970571518e-02  3.3800041606591689e-02  9.6934609686227615e-05  1.0199123491178725e-04  2.9413293010399009e-04  5.1785576078419986e-04  9.8930389985417855e-03  3.6402687339846619e-02  3.7291135245922091e-02  2.3045548457149782e-02  1.6058856391602248e-03  1.0579457936109073e-04  2.5565477477243427e-04  3.3819714219565075e-02  3.8682489874690806e-02  3.9988004656366372e-02  3.6720131710506254e-02  8.9357895675015078e-02  4.0791746628820404e-05  2.0701250078767708e-04  3.5924999698882992e-02  3.1065658451686386e-02  1.7240492885001654e-04  4.5172253199238807e-04  2.7097855752749006e-04  2.9427383423850077e-04  1.7868694419483598e-02  1.5443884787665665e-02  2.3603333391423228e-02  2.4957607733918835e-02  1.6956947849869359e-02  1.9667816008046829e-04  2.3376787043718644e-03  2.9073097933747196e-04  2.3523181797866608e-04  3.3026558993681322e-02  3.9084480589124365e-02  4.0331288242819736e-02  4.3185669169368467e-02  3.3015286281103312e-02  1.6214455525823505e-02  1.7095362629703163e-04  5.4977673194587238e-04  7.9561274449903925e-04  3.7939684446137024e-02  8.1381967236481313e-03  4.2045661853276602e-03  1.0778339400093406e-02  4.4599897188271662e-02  2.3981378082252353e-03  9.0957832833293548e-02  4.5663757752325528e-03  2.9323700744887080e-02  2.1887943021566691e-04  4.2193812814984074e-04  4.5825964102253740e-03  3.4260146948497584e-02  3.7931127657116773e-02  1.5982341096469926e-02  3.1103572141239513e-04  1.3677160320793185e-03  9.2331488269139853e-03  7.8060604372492369e-03  3.4285949269930990e-02  2.7686390145570314e-02  1.9451558956621637e-02  2.6564841369766039e-02  3.1991868993551338e-02  3.9285469119697138e-02  7.5985697377380680e-03  3.2444529732322105e-02  2.5655381637697827e-02  2.9637983154614418e-02  3.0482342762361905e-02  2.3709908062996023e-02  1.5621722183594487e-03  4.4677963271647027e-04  1.5789738785509126e-03  1.4566675190471581e-04  3.2964937373398624e-02  3.4653578421484386e-02  3.5967410188417918e-02  8.8136871459244771e-05  4.5146670654323200e-02  4.1721610225377820e-02  3.2239507360900449e-02  2.4718873131231129e-02  3.5608841145230399e-02  1.3861410969009891e-02  2.7582441007412740e-02  3.3670299517724323e-02  2.2026723744369467e-02  3.6128523720096312e-02  3.2262395850007006e-05  3.8464507567764539e-02  3.5073470391824957e-02  5.6740770198816640e-02  7.5161476396338697e-04  3.8670637553899920e-02  4.0307522700501780e-02  3.8815322220775758e-02  3.7143155106338588e-02  1.7694520173517673e-03  6.3473657063799205e-03  8.6723434599841941e-04  2.0347839454633952e-04  3.7326180689832449e-02  1.5427601912327595e-04  3.4059437034597557e-04  2.6887765393524302e-05  1.0454003881460339e-02  7.5794237442544237e-05  3.6085534356490291e-02  4.1104347013353817e-03  3.6802479853058151e-02  2.0215477162295243e-03  3.6502621588295127e-02  3.4727059969096238e-02  9.8035686476665492e-03  5.2486420692167488e-04  3.6796834597819447e-02  4.5100173390720998e-02  2.9550874730476109e-04  2.5283704464372172e-04  1.8313988748948917e-02  2.6085203017891238e-02  7.0258370213947688e-04  5.1605550606260387e-03  7.5365220204960789e-04  5.6715184949561947e-04  2.2198756911427799e-04  3.4303670380277057e-03  3.6054287346821354e-02  1.4646273988381595e-04  2.5046852259760815e-04  5.7885085891420307e-03  5.8678008944270462e-04  2.5401689173956509e-04  2.4412786854062537e-03  1.7611678421808354e-04  4.9463725434010977e-04  5.7507552393268736e-04  5.0464663346432644e-04  2.4102945568508510e-04  2.9103333738535371e-04  6.6992923836671210e-05  3.6638308347157124e-02  3.0328124485444450e-02  2.5049545838427952e-02  3.5221921285646295e-02  3.2018309580695341e-02  4.3538526252644490e-02  3.2266733995413820e-02  2.0492004224257367e-02  2.7101257906013539e-02  3.2535013999673706e-02  3.6638502056644623e-02  1.5500201085563728e-04  3.6389682246679857e-02  9.5618292119540968e-02  7.5353086150896937e-03  1.1197089749781744e-02  6.5225284776107139e-04  5.3964450505324915e-04  2.9886323234000752e-02  3.1895836227873259e-02  5.1131587270284801e-02  2.9954602870342257e-02  1.6067241906409324e-04  2.5543865737760803e-02  2.2124106292932228e-02  3.1111900733133586e-02  2.7282051705445842e-02  3.7063955005385098e-02  4.3311196294892503e-03  7.8889920608831083e-04  3.0612376278261701e-04  7.1057630654453038e-05  2.9038083166918208e-02  3.6478719177656715e-02  3.6351857415658148e-02  3.3422276549698302e-02  2.6104242955101890e-02  3.4640281165986782e-02  2.0832782282601554e-02  3.0118830817965361e-02  3.0769812908999827e-02  4.0236532998569247e-02  1.2238934939600975e-04  5.5998704275555134e-04  9.5395466270015346e-04  1.3813184901173023e-02  1.4357409598950326e-04  3.2002048369699283e-02  9.2177445986968559e-03  1.0030250433996466e-02  3.6764177843267361e-02  6.4659694565461579e-03  2.7832944364294288e-02  1.4403569533547598e-03  3.3318595042735499e-03  3.7480826915936496e-04  1.3763976985034372e-02  3.2810520766177936e-02  2.6061085635543040e-02  1.6191878857141920e-02  3.4660101764177539e-03  6.1620163991020344e-05  1.5691404662896154e-04  2.9124142197963169e-02  4.6310522776972360e-03  1.1165885477439044e-01  1.9114002313698291e-02  1.8428502704043618e-02  1.1443451782179429e-02  1.6180767875279841e-04  2.5180523746637108e-04  4.1538998761006009e-02  1.5322795583589928e-04  1.3307776907953953e-03  3.2740114391059505e-02  5.3776176554789426e-05  1.0493242625638352e-03  8.9081373435451110e-05  1.0258446380103786e-03  3.2928478310954173e-04  3.4884641222729829e-02  1.4587420172540274e-02  3.2680267769701399e-02  4.3012886351859222e-02  3.4309775056014940e-04  3.8209012785198129e-02  3.7307382755377046e-02  3.7200512937014950e-02  1.7858848440338685e-04  2.9569435441765038e-04  1.5720284605543361e-04  3.0810281217383398e-02  3.9450381649969592e-02  3.3127994307492102e-02  3.0362411311046042e-02  1.3382474807638461e-02  2.5844533064488533e-03  4.0633652262360764e-02  1.1148607277131730e-03  3.6910622749518902e-02  4.4342036068795422e-02  4.3968459025865249e-02  5.2625575558848470e-03  1.8204734216475508e-02  3.1087715910378844e-02  1.6646598816803939e-02  4.4069301849465587e-04  3.7255304374482767e-02  1.2770573316936423e-04  2.7309227580995996e-02  2.4765304870079021e-02  5.8988680738437972e-02  3.7067526135410520e-02  3.9700583242769309e-02  3.7941468728071276e-02  4.0524041786299987e-02  2.8468050887091958e-03  2.3780786209245557e-02  4.3470113558557628e-02  1.6280271909141025e-02  5.8028970840755239e-03  2.8295186016901380e-02  3.6755849579186990e-02  2.0244925654719272e-02  9.1355671413033013e-03  2.4314406349498781e-02  2.0435834942560133e-04  7.8297570493296670e-04  3.5050831920838493e-02  4.2985136252211932e-02  2.2050985198057904e-03  1.8520663564006016e-04  2.6219437938352334e-04  1.1940932081860438e-02  5.3472935297008854e-02  7.7873550567504543e-03  1.4572462584934215e-02  3.6395944047789418e-02  2.9832946082686319e-02  2.2563880481297192e-04  6.6708206148196350e-02  1.5458549212121586e-03  1.2062318069601136e-03  2.9852222404974111e-02  3.1111768643881921e-02  3.6912844719918313e-02  2.3274403956744262e-04  1.1351775214532107e-03  3.0616884533316886e-04  2.5897097615058384e-04  4.1368076174349774e-04  2.5538519780208397e-04  1.2976605617741324e-04  6.5522714653541883e-02  3.0175741472968108e-02  3.5887660845604269e-02  3.4377163464882399e-02  1.1883742541331170e-02  2.7285567388925094e-02  3.5955155814981814e-02  5.3114768338621988e-03  1.3124051223804833e-02  5.3002435459943535e-02  4.1175219488312669e-03  4.4385455365787210e-03  1.4609862012438988e-04  2.0498138500074975e-04  7.0574160545818767e-04  5.1010930563184288e-04  3.3691754860798950e-02  1.5179880302069933e-04  3.6347982521366888e-02  3.7582208600864163e-02  3.7551784844228282e-02  3.4584144064525979e-02  3.6437460404397853e-02  3.3727822145870355e-02  3.6580582814077438e-02  3.9389731800915935e-02  3.4818700512845364e-02  3.2751852305455624e-02  2.9910014800846128e-02  3.5817739338061892e-02  2.2121124634133751e-02  1.3132108170605861e-04  1.1788825128419768e-03  1.2694812365744784e-03  7.4365486247773816e-04  4.1698968146394434e-02  5.4145441886573129e-04  9.7047417233980143e-04  2.9431847672133017e-04  7.1472722632722786e-04  1.9346890733224726e-04  1.6527122866016100e-03  3.2638773510905981e-03  2.7166394861131956e-03  4.3522119804872946e-03  2.2745278070013405e-03  3.7891112571412935e-02  1.5452027782285980e-03  1.2323648529640000e-02  3.6236924472735729e-02  6.5053434669664649e-03  2.4703338127084692e-02  2.7838652968499686e-03  3.5168227128192509e-02  9.7155230161685940e-04  2.0569832001617722e-04  2.4016055457990942e-04  3.0028876382432824e-02  5.2467032387426265e-03  2.7224926211366386e-02  4.5120917905961871e-02  4.8493538480303890e-02  9.5310461927866318e-03  3.1138042418269382e-02  2.8011127482348503e-04  1.0690165040894996e-03  3.5707058674504365e-03  3.5183199546089702e-03  3.7683310493875938e-02  1.2002174009649234e-02  3.4218474077531952e-02  2.4666204479834499e-02  2.5091986292517351e-02  4.1825900911125952e-02  3.7536078796909858e-02  4.0683631671982912e-02  5.5047654216550676e-03  1.4294925388804496e-04  2.4160835723956468e-04  2.1450835440839431e-04  2.8681733561601332e-02  2.6696697237612501e-02  3.7180873134228215e-02  1.8456195799401307e-02  3.2445535714268947e-02  1.3364630001220009e-02  3.6124915371668315e-02  3.3721269020411802e-02  2.3957102880480200e-02  6.5132430508834513e-03  1.7311534607975371e-02  2.7243311452924458e-02  3.1148555875004966e-02  3.2920638433668173e-02  3.3736361193831048e-02  1.4494659561821875e-02  1.3461702866539929e-01  1.6300020720099297e-03  6.0703528071206559e-04  6.7029805987111344e-04  7.2528167873572068e-03  1.6152648532414480e-04  3.3722539418974545e-02  2.0023379275805289e-02  7.1780388051642565e-04  3.0214500269724410e-04  2.1916885349805012e-04  5.0948406606050697e-02  4.2904422827786996e-02  4.4914817674676984e-02  5.1654927505664038e-04  3.5593071099052493e-04  3.6782228441270917e-04  3.3947365171219617e-04  4.7291558007485582e-03  3.3665867728588574e-02  3.0614615883367363e-02  3.2155157531316599e-02  8.7096502711242257e-04  3.5794757748579244e-02  2.3368498304729619e-03  3.5144321903922193e-02  3.3482789324704394e-02  2.7793922381678705e-02  2.8829531346638492e-03  4.6592707270640001e-02  3.0188497673666038e-02  1.9816058200199430e-03  4.5712289777056080e-06  4.7455161734522612e-06  3.3905512203455054e-06  2.5991907565959871e-04  2.3127505396938366e-03  3.0532346175643699e-04  1.7254024791472857e-04  3.3004128799740896e-06  1.3392570107014723e-02  6.9760678141994117e-02  8.6858158597908394e-02  3.3541217073838649e-02  5.2650983787825179e-04  2.1439243060187973e-02  3.0817435475106514e-02  2.6459767710853833e-02  2.7675000716522718e-02  3.6912826847624224e-02  3.6260942168586781e-02  3.9212288562473309e-02  3.6885461004469218e-02  2.0075585380331922e-02  3.6742673647812973e-02  2.9348983251428856e-02  2.6668103416172196e-02  4.0034796932434140e-04  2.1719063162082318e-03  4.5905678893746185e-03  2.2260006084594496e-03  1.9514287667380841e-03  1.1877951351838964e-03  4.2904649569596442e-02  1.4485404195099510e-02  1.6655410041881841e-04  1.7641627655319109e-04  3.2124494671581386e-04  3.9456959592361208e-02  1.7276110209800007e-04  1.3130838575783191e-04  2.8370331369977433e-04  1.9082800706143172e-02  2.4221319440591221e-02  2.2954914851367744e-02  1.4953830152647531e-04  3.4388366421046958e-02  3.8037794733744683e-05  5.8311703122031575e-03  2.4656347117636816e-02  1.2631559871512695e-04  2.8434211530695987e-04  3.6831171657813272e-02  2.6888300672668432e-02  2.5481443640142733e-02  3.0286249737464337e-02  3.5626005315905757e-04  5.6239297926347152e-04  3.8867155761721443e-02  3.8763591625722460e-02  3.5147721910252519e-02  2.9855002439452726e-02  3.9500824306242258e-02  4.2969817995055413e-02  4.7115689236847438e-05  4.5308085932173528e-05  2.1815111560372052e-02  2.3870831423068655e-02  3.0545637784562891e-02  1.9838184545762898e-02  4.4538377807601150e-03  8.5824432590746388e-03  1.5321395361451799e-02  2.1198075597873487e-02  5.8425210183804207e-04  2.1769880852897661e-02  1.5973075590759373e-04  1.2221494576763577e-02  3.5427835895801250e-02  9.2120163751557111e-04  4.2716622813372966e-05  1.8353858179209580e-04  3.8306343404260630e-05  1.5452205747510083e-04  2.9763022406564452e-04  4.8252778807622186e-04  7.7068724593102754e-04  8.3641125114049893e-04  9.7429418579762245e-03  3.6096100399954728e-02  3.7819880439944208e-04  1.9894679730928831e-04  3.1377476674490340e-02  3.5254780854642412e-02  2.7411574247273039e-04  2.8740973994110554e-04  4.3921135691035761e-04  2.8889327236568651e-04  2.6886063278038861e-02  2.2784693972139596e-02  3.1047558750173402e-02  2.9806030110340630e-02  4.0798585129898167e-02  2.5892791258163232e-02  2.3676704726939300e-02  3.6934617932548292e-02  3.0579952309125465e-02  2.9616309078033091e-02  1.5345706597163488e-02  3.2706387819641927e-02  2.2385787957602411e-02  2.5975584109299663e-02  5.0763840079276895e-03  3.2060311768046905e-02  2.4321904142704316e-03  2.8481697697659368e-02  8.5959058772230295e-03  3.6506952721889155e-02  2.3674818354560464e-04  2.8589974147470783e-02  4.1005726692577661e-02  3.9002973049751609e-02  9.6029888682733766e-03  7.0528382527642684e-03  1.5377282009450117e-04  1.9672745206977929e-04  4.6355124624058289e-02  3.1806388877744361e-02  3.2642792070929599e-02  3.9969387218966897e-04  4.1058675487104040e-02  3.6046420820729723e-02  3.0329977490417367e-02  2.4959618821134163e-04  2.2625888723398825e-04  4.0078019005689090e-04  1.5886955943245282e-04  3.8655265965226968e-04  7.8335385596488524e-05  2.9069197147176176e-02  3.1943704425776744e-02  2.7823378268116906e-02  3.8649020591212318e-05  2.6703099833601978e-04  4.6915869210813665e-04  3.9315773496275242e-05  1.2573059605261981e-04  1.2017257470101735e-04  4.1042156954632786e-02  1.1585495910005107e-03  1.1608054213689302e-04  2.5139629551817962e-04  2.3178044617603449e-04  1.7909179296186369e-04  3.7022750156430688e-02  3.7309503327264661e-02  3.6698713002996285e-02  2.4791206684630359e-02  2.1648433653372115e-02  3.6602536203979429e-02  5.4581097217379934e-04  9.3248345972321775e-03  6.7602517546628930e-04  2.7866200367471158e-02  2.2779786937106146e-02  8.5337085651927269e-03  3.6137798152919148e-02  1.4123174034769580e-02  6.9744150151587513e-03  3.4060196247069664e-02  2.9549546825662826e-02  2.3604382937926773e-04  1.9185096376564124e-04  3.6810924905978586e-02  1.4004128172654911e-03  4.2740751833070229e-04  3.6259961404418360e-02  3.9205422628577589e-02  3.6973863018067828e-02  3.0974279631023401e-02  8.7255711459625145e-05  3.6379841435728352e-02  2.8219512784526207e-02  2.1418446174032362e-02  1.749451072