<?xml version="1.0"?>
<VTKFile type="UnstructuredGrid"  version="0.1"  >
<UnstructuredGrid>
<Piece  NumberOfPoints="1515" NumberOfCells="2858">
<Points>
<DataArray  type="Float64"  NumberOfComponents="3"  format="ascii">-0.5 -0.0001 0  -0.5 -0.5 0  0.5 -0.5 0  0.5 0.5 0  -0.5 0.5 0  -0.5 0.0001 0  0 0.0001 0  0 -0.0001 0  0 -0.5 0  0 0.5 0  0.5 0 0  -0.25 0.0001 0  -0.25 0.5 0  -0.25 -0.0001 0  0.25 0.5 0  0.25 -0.5 0  0.2500374937493749 0.1875187468746875 0  0.5 -0.25 0  0.25002499 -0.125 0  -0.125 -0.25005 0  -0.125 0.25005 0  0.5 0.25 0  -0.25 -0.5 0  -0.5 -0.25005 0  -0.5 0.25005 0  0.125 -0.3124916691673332 0  0.125 0.3437443727884549 0  0.3187498332767468 -0.3187498332767468 0  -0.3125 -0.3125124974994999 0  -0.3125 0.1875875025005001 0  0.04436566007004419 0.1785185187387698 0  0.3437706224620182 0.3437706224620182 0  -0.359407810625422 0.3594296915637348 0  -0.359407810625422 -0.1406703084362652 0  0.08209948494863104 -0.1484533219292508 0  0.3281296842191969 0.03125624875007487 0  0.1612337437527647 0.0454945319044936 0  0.5 -0.125 0  0.3736573308633327 -0.1902100573489204 0  -0.05632383965282133 -0.1281636979131719 0  -0.1875249975 -0.37501249874975 0  -0.02161822989173764 0.354580025951059 0  -0.2160757009003203 -0.1393657085918785 0  -0.01783801249259284 -0.3526895391541273 0  -0.2160757009003203 0.3607342914081215 0  -0.125 0.0001 0  -0.125 -0.0001 0  -0.1875249975 0.1250875012502501 0  0.5 0.125 0  -0.375 0.0001 0  -0.375 -0.0001 0  -0.5 0.125075 0  -0.375 -0.5 0  -0.5 -0.375025 0  0.3828324180271084 0.1875 0  -0.125 0.5 0  0.5 -0.375 0  0.375 -0.5 0  -0.125 -0.5 0  -0.375 0.5 0  0.125 0.5 0  0.125 -0.5 0  0.5 0.375 0  0.375 0.5 0  -0.5 -0.125075 0  -0.5 0.375025 0  -0.06200365993838185 0.1102431244359298 0  0.3921286730834987 -0.07100003899567721 0  -0.001178265146973292 -0.2342725669761844 0  0.219639755882476 -0.3848202826230195 0  0.1764909845376315 -0.2113963654501196 0  0.2343901841136658 0.3031458088961128 0  0.1561195030924493 -0.06553680147678266 0  0.1485501800845649 0.1522005597879607 0  0.07430925316253632 -0.4062458345836666 0  0.1875 0.4218721863942274 0  0.0625 0.4218721863942275 0  0.2776974776570886 -0.2252166395728846 0  -0.2310132101974821 0.2556304703469177 0  -0.2310132101974821 -0.2444695296530824 0  -0.3906265628125469 -0.3906296862497968 0  -0.3906265628125469 0.1094703137502032 0  -0.2812687506255001 0.09383750062512503 0  -0.2812687506255002 -0.406262499374875 0  -0.4101472686723712 0.2071199254696213 0  -0.4101472686723712 -0.2929800745303787 0  0.2470275540227946 -0.02585328932041452 0  0.4068247800249947 0.09140209453477602 0  -0.1176406316218027 0.3957739114529177 0  0.4080574838155757 -0.2809016730332933 0  0.3125 -0.4219344228213859 0  0.4088486496673779 -0.4088486496673779 0  0.1167033063099591 0.2455046542815969 0  -0.02381261413756171 0.2533622281544139 0  0.02735543470987723 0.08802303626707711 0  0.3144655814479235 0.2551097933485553 0  0.2801337679615206 0.4118308473117793 0  0.4101587089138863 0.2773478512831281 0  -0.09689860681079282 -0.4078094624324944 0  0.213976519574722 -0.2941495474331945 0  -0.318965898965983 0.2781458178971435 0  -0.3125 0.4357826538464097 0  -0.318965898965983 -0.2219541821028565 0  -0.3125 -0.06431734615359029 0  -0.4357704230694522 0.3125375 0  -0.4357704230694522 -0.1875625 0  0.4114732283419867 0.4114732283419867 0  -0.4234646583494089 0.4234743507195528 0  -0.4375 -0.0001 0  -0.4375 0.0001 0  0.3164258563077259 0.1230517971377134 0  0.04931026741366369 0.300666438050672 0  0.2304865209107167 0.1009680687096636 0  0.02061587644269779 -0.08558486663800556 0  0.09390691211100699 -0.2329943594667239 0  0.08896107880644889 -0.006809950500825342 0  -0.1875 0.5 0  -0.1392552316473008 -0.09019077220175532 0  0.4170297537744737 0.008612617817243748 0  -0.4243694331702185 -0.08478222235936261 0  -0.1416933693607303 -0.1709733993077484 0  -0.09511425322415427 -0.3261090638251909 0  -0.04508670308176045 0.4323857419859515 0  -0.4375 -0.5 0  -0.1187189609291948 0.1687838380963837 0  0.3117722643778845 -0.07351457101062323 0  0.1513445599038777 -0.4251753449096755 0  0.04472177709904164 -0.3011105058468416 0  0.001740722226491711 -0.4250539693950984 0  -0.03075788851996441 0.178560406845558 0  0.1766313586052732 -0.1370243862559475 0  -0.0761550533906552 0.3051296889632589 0  -0.1485469487091727 0.3268133048125818 0  0.1930083860569673 0.2386735170085497 0  -0.0625 -0.0001 0  -0.0625 0.0001 0  -0.2878141094770303 -0.1320687430427478 0  -0.2875995151119595 0.3444544772933048 0  -0.24076159142329 -0.07161431170272106 0  -0.24076159142329 0.428485688297279 0  0.4263700347703773 -0.1373417231816959 0  -0.1856875708107399 0.19821478019016 0  0.09322297310683496 0.06338537237428626 0  -0.07466041728962823 -0.1981228067401687 0  0.009513123991135172 -0.1613319531958586 0  0.3092144166352111 -0.1625850961304104 0  0.3437404121717113 -0.2534277690952264 0  0.4379744025071972 -0.2176839612869874 0  -0.1297061011176702 0.07587858854060507 0  -0.1875 0.0001 0  -0.1875 -0.0001 0  -0.1875 -0.5 0  -0.1633110600051376 -0.3090045011162743 0  -0.21877499875025 0.06259999875025002 0  -0.21875 -0.4375124968750625 0  -0.25001874937525 -0.3437749968748749 0  -0.2500187493752501 0.1563250031251251 0  -0.5 -0.4375125 0  -0.5 0.06258749999999999 0  0.08904799960830578 -0.08015900599685086 0  0.4108334826406196 0.3444103681633853 0  -0.0625 -0.5 0  0.4414087098136942 0.2187640586098291 0  0.4382361660678968 0.150288432919798 0  -0.3125 0.0001 0  -0.3125 -0.0001 0  -0.3416336343815852 0.06187820768002609 0  -0.3125 -0.5 0  -0.3416336343815852 -0.4382217923199739 0  0.3168016282179152 0.1891009224226147 0  0.4368875345166075 -0.3446993355472595 0  -0.05975660640830217 -0.2683150418715617 0  0.3458703977041003 0.4362216268226822 0  0.5 0.0625 0  0.5 0.3125 0  0.5 -0.0625 0  0.5 -0.4375 0  0.4375 -0.5 0  -0.04197328552084911 -0.06329083152961786 0  0.2257906778195176 0.03586621568734723 0  0.2286857476565217 0.36951555023185 0  0.3548787707540964 -0.3727197121900284 0  -0.1790795964032311 0.4125871598709088 0  -0.0278086253378118 0.05696913583040467 0  -0.2640893654172825 -0.190631969293494 0  -0.1533594275423699 -0.440977335357388 0  0.5 0.4375 0  0.4375 0.5 0  0.1704903431553385 0.2986434949108457 0  0.08721475273820462 0.1287687476127682 0  0.1875 -0.5 0  -0.0625 0.5 0  -0.4375 0.5 0  -0.3125 0.5 0  0.0625 0.5 0  0.125 0.4359369935185367 0  0.3125 -0.5 0  0.1875 0.5 0  0.0625 -0.5 0  0.5 -0.3125 0  0.5 -0.1875 0  0.5 0.1875 0  0.3125 0.5 0  -0.5 -0.1875625 0  -0.5 -0.3125375 0  -0.5 0.1875625 0  -0.5 0.3125375 0  -0.5 0.4375125 0  -0.5 -0.06258749999999999 0  0.3624254104606854 -0.1274336378120225 0  0.1857642697873453 -0.01126882530927889 0  0.03669184495608396 0.2400031982312926 0  0.04068015303098439 0.3629261100764373 0  -0.3851162339112683 0.269026866774594 0  -0.3758332300807991 -0.1995452526923809 0  -0.446144648587372 -0.34378125 0  -0.446144648587372 0.15631875 0  0.3504998016039519 -0.02589861883840036 0  0.2836777321248879 0.07223256202683162 0  0.21875 -0.4466460035652602 0  0.1774501368185094 -0.3419431906700547 0  0.2592287652038449 -0.3368353496836486 0  -0.4486577479325732 0.09383124999999998 0  -0.40625 0.05134972627205531 0  -0.4486577479325732 -0.40626875 0  -0.40625 -0.4487502737279447 0  -0.07907884158578801 0.2127234227389962 0  0.2826672956396865 0.340725212476292 0  0.2552094419670018 0.2470909165729528 0  0.1235030570827048 -0.3722630563328095 0  -0.1765523267242401 -0.2196325740312749 0  -0.3653881707177284 -0.256399556620603 0  -0.3667881364584723 -0.08355066867835562 0  0.1448027058369495 -0.2589171712236736 0  0.2204190758351349 -0.1742931558527921 0  0.125595190811689 -0.1854735536931699 0  0.2751135960266025 -0.2821263988783404 0  0.04714559827497029 0.03095590907283807 0  -0.3694518448121097 0.4428768192088114 0  -0.4163493718954405 0.3665341424253254 0  0.2065677312659464 -0.0897482605048449 0  0.04596501084766122 -0.2039288085874983 0  -0.3678348759016452 -0.3352975447880205 0  -0.3331464162279717 -0.3812640910313448 0  -0.3678348759016452 0.1648024552119795 0  -0.3331464162279716 0.1188359089686553 0  0.006928352547084439 0.4089314103168539 0  -0.008754979675293741 -0.28865535545956 0  0.454824000777391 -0.03125 0  0.4453084397952883 -0.08555947234219879 0  0.0400389030608287 -0.3591593324500765 0  -0.3565047668221014 0.2214443888382642 0  -0.1767790649240408 0.276160039146296 0  -0.4407450517553578 0.2555055370068006 0  -0.4424041217249974 -0.2449977221857678 0  -0.0101841459589043 0.1278467808234489 0  0.1946666826231925 0.1831558471035277 0  0.1023041143695485 0.1885027832887665 0  0.1383943178482503 0.09688656085697314 0  0.1738321521953076 0.3687430643819201 0  0.09375 -0.4563154147117792 0  -0.2831024225358643 0.2351964925231401 0  -0.2621637468582121 -0.2899792135739121 0  -0.2423367266168128 0.3108531660207947 0  0.3858515397252176 -0.3293494555229365 0  -0.09921103529049136 0.4494480844437962 0  -0.1387217209722605 -0.3554699308920083 0  -0.06600083182100508 0.3836351847814501 0  0.1309954671830858 -0.1114321286398948 0  -0.09375 -0.04518048647049126 0  0.04208778762923838 -0.03517827620526504 0  -0.08165643227347709 0.05080163226699017 0  0.2987692351119484 -0.01319048554596328 0  -0.4136288823076366 -0.1379960981994732 0  -0.1856470434007142 -0.05707095126749213 0  -0.15625 0.4588983004055426 0  0.301492156088943 -0.3696020442065089 0  0.2261014656445051 -0.2255765688706129 0  -0.0254711816102797 0.3040308714413081 0  -0.2359814035109398 0.2051098885755096 0  -0.2142660728025848 -0.3074346058732286 0  -0.0444842016587006 -0.3987296650352232 0  -0.06299926340697812 -0.4476735265309565 0  0.2370119789310965 0.4463270361850639 0  0.1025408210352734 0.3898406831534957 0  0.02523186154102609 0.456121755814222 0  0.2703582881149408 -0.4522472093634566 0  0.34375 -0.460967211410693 0  0.1519529867048281 0.2096636028655708 0  -0.1028373102819492 0.3477334553616848 0  0.2543545123482477 -0.07525044338081299 0  0.4586232703312498 
[...]
<PointData  Scalars="f_184501"> 
<DataArray  type="Float64"  Name="f_184501"  format="ascii">1.7749311948946754e-06  2.3030275142871704e-04  1.2763698776001195e-01  5.3755515416174404e-02  1.0984558237382884e-03  3.8461687685735670e-07  5.2680255948428989e-01  5.2792306138454170e-01  1.2621433186957470e-02  1.9660880731792254e-02  2.5941360124377654e-02  1.0477886537002832e-03  1.3425604231867417e-03  1.1573223372727340e-03  4.2262629285099655e-02  2.8577275480935440e-02  4.6033553356541829e-02  3.4573779120776103e-02  4.4414604648864910e-02  4.9932115470296030e-03  5.8358628280359886e-03  4.0975660772302247e-02  2.4311628417807022e-03  5.4832320696265565e-04  5.7135620817917764e-04  3.3539695213769594e-02  3.7314094186023522e-02  4.5636631407159692e-02  2.9048937568210869e-04  2.4001270748206472e-04  4.3279884691085110e-02  4.5269717194899563e-02  7.5685523136926822e-05  3.3356323623361426e-04  5.3964462902409770e-02  3.5582720889451809e-02  4.5388316678808327e-02  2.7837274622147544e-02  4.0604365597633925e-02  1.6212062521103503e-02  2.8593169075006460e-03  1.8391080755569739e-02  2.2587517823369191e-04  1.4399358167500868e-02  1.8401481765534771e-03  3.0011445804348337e-03  3.0278389330613492e-03  3.1556778387044522e-04  3.0957872175642442e-02  1.2661182276506815e-04  1.4207594070108102e-04  1.0261397866986868e-04  8.2582511218143469e-04  4.9794248808298139e-04  4.0079122630718528e-02  7.4367975333756069e-03  4.6384628085229085e-02  4.2196351682658444e-02  6.1787612476911008e-03  5.4610699144724421e-05  3.3456584009817075e-02  2.0174264806504000e-02  5.0298398916606479e-02  4.6643214047237716e-02  1.2028966844507453e-04  1.0417869347866138e-03  1.5452365064607740e-02  3.3976370170231820e-02  2.2857170557392972e-02  3.4611321097487595e-02  4.7849453054464176e-02  4.5040350909148319e-02  4.8917893203262515e-02  5.2400542914302982e-02  2.0868443561046186e-02  3.9567681586395294e-02  2.7781803509405435e-02  4.6309901238323452e-02  7.5025661315384089e-04  7.4551853453082935e-04  3.7486112755037238e-04  2.9293159285034875e-04  3.6194719940639937e-04  1.1101991897110547e-03  3.1489535317220571e-04  1.7623467071609984e-04  3.7840621856555165e-02  3.4389546298338951e-02  7.6602048703688311e-03  4.3452918741423062e-02  3.9264155512756471e-02  5.2578895820521887e-02  4.3588229598788837e-02  2.0629190481686346e-02  7.0014830239463297e-02  4.4733812964952109e-02  4.3819931113080600e-02  4.3350981738078651e-02  7.1653064399954496e-03  4.2244262439896374e-02  1.3659475155392502e-04  2.1496619969863935e-04  1.7254934342689947e-04  3.8997692867723277e-04  3.7890324270134897e-04  2.5782193514953863e-04  4.7511728487157706e-02  3.1770619655680340e-04  2.1093799820646680e-05  1.6584738803053656e-05  3.9881519443708394e-02  3.0637443716043943e-02  4.3177500797190377e-02  6.9218044592761097e-02  3.9470784881196846e-02  6.7927806634458576e-02  3.5453372039835206e-03  8.7902326364556950e-04  3.1570439590329374e-02  1.6239701772843346e-04  2.6961365300697377e-03  7.6514139532341150e-03  1.4908731145472207e-02  4.7477894334176871e-04  4.9921373380859791e-03  3.7763997949008976e-02  2.5405449137859967e-02  2.4600587890750199e-02  1.3918029643592122e-02  2.3208431002365221e-02  5.0965928326675292e-02  1.1602964438243681e-02  4.7783815848385473e-03  4.7098239434119671e-02  8.9903714225012255e-03  9.8496807212491034e-03  2.6964965047514532e-04  3.1534653539587850e-04  3.9283447168030283e-04  1.4335992714979680e-03  3.4065185953989364e-02  1.2218058462915718e-03  6.7020857473796699e-02  1.0892995696014053e-02  3.5789202465801001e-02  4.2918178056242165e-02  4.5021093919436789e-02  3.7144907116738436e-02  1.0820198571230765e-03  1.8623771050799640e-03  2.0810808508316208e-03  4.0484656588134042e-03  3.3679773721785123e-03  4.6757761031081669e-04  2.5442398790075740e-03  1.1263551359510624e-03  1.7370090361250101e-04  2.4830644375894431e-04  1.5823671235300575e-05  6.7755571877679499e-02  4.5870559615229060e-02  9.1894698729454594e-03  3.9415363452408911e-02  3.5585145299035698e-02  4.3833257892060166e-04  4.9865817983393650e-04  3.1255331766612293e-04  1.4197239477641613e-03  8.0669323678601379e-04  4.3012260267059052e-02  4.6977598817970145e-02  1.1863883791054202e-02  4.5585629882780900e-02  2.7578301271179037e-02  4.6136720050913377e-02  2.6112972697381054e-02  6.8302552120110410e-02  6.2421161792997309e-02  2.3034571875086354e-02  3.8778604528395530e-02  4.2937284350429525e-02  4.6234268068304350e-02  3.7041244439034440e-03  4.2802869099239714e-02  2.2903447237404234e-04  4.6678337783534214e-03  5.2954957939797154e-02  4.9911362108205279e-02  4.3194119544705568e-02  5.8555236607897881e-02  2.4453269536162267e-02  1.2910395380895272e-02  4.5876383351521849e-04  2.3324605392044620e-04  2.7082843453256848e-02  3.4398096736936432e-02  3.3654122786502844e-02  3.8812066564533801e-02  1.6355370943853548e-02  3.9832938038418343e-02  3.0989777314363441e-02  3.5731343203523828e-02  4.4441002544638099e-02  3.3781993561947491e-04  6.2625653950600275e-04  3.0152447606665616e-04  8.5431654854065207e-04  1.1773829378142198e-03  1.9217063896270554e-05  3.7899609236975156e-02  4.0214298025267797e-02  3.3397883087476196e-02  2.6684842201484569e-02  2.2122102564047132e-04  2.3680089641598372e-04  2.9858561544480984e-04  2.2729297484368600e-04  3.4659023536008339e-02  3.8365179110531403e-02  2.8875488846743669e-02  3.5264360415270861e-02  4.1603276618893431e-02  1.1665230990016965e-04  1.2254093110964769e-04  3.5141675018966691e-04  5.8085694555872988e-04  1.1194258630713796e-02  4.4810847600709872e-02  4.6146434162334035e-02  2.7723274687544736e-02  1.7541197545776245e-03  1.3431205152905594e-04  3.0862379182218427e-04  4.1308510870601452e-02  4.8310477543410779e-02  4.9351341847559564e-02  4.5454391306297560e-02  1.2305424716202526e-01  5.3781027155887265e-05  2.6773751977264565e-04  4.5087486081822607e-02  3.6982060835344548e-02  1.9476186685681577e-04  4.9518055395102970e-04  3.4087680146675054e-04  3.6918420386252218e-04  2.1051808728596206e-02  1.8032808222408714e-02  2.8777135007306970e-02  3.0519291033653109e-02  2.0076825161905183e-02  2.5574819629645737e-04  2.6094938181481877e-03  3.6263141776593505e-04  2.8912141359662904e-04  3.7847024900083619e-02  4.8619543429633399e-02  4.9331176195233542e-02  5.4672019276407857e-02  4.0038411449442174e-02  1.9364667888657091e-02  2.0337006408040041e-04  6.0129162855817112e-04  8.7933141551199722e-04  4.6945279326575204e-02  9.4317485181583307e-03  4.8005306092631555e-03  1.2525728095231137e-02  5.6342863735078838e-02  2.6048787416452458e-03  1.2336607093862940e-01  4.7497833665341117e-03  3.6116589834559190e-02  2.6533072831896024e-04  5.3159937824820891e-04  5.2584409695805466e-03  4.2245978741283566e-02  4.7096923699735560e-02  1.8644990009253376e-02  3.4145459106831792e-04  1.5190786554697441e-03  1.0784466775253344e-02  9.1274494048527895e-03  4.1789442198998196e-02  3.3165249448183318e-02  2.2992557953581159e-02  3.2442559131836336e-02  3.9428220314355437e-02  4.8429017033806809e-02  8.7475923267659478e-03  4.0326438570287490e-02  3.1367040456844852e-02  3.6480341062621588e-02  3.7555227919522018e-02  2.8896901692371416e-02  1.7630651566768506e-03  5.4968452655407057e-04  1.7743746934045252e-03  1.9228029109538019e-04  3.9866112553497472e-02  4.2896144929403829e-02  4.4522235051903544e-02  1.0419596663020475e-04  5.5862078182543656e-02  5.1875756837696463e-02  3.9802904885031777e-02  2.9332387674771001e-02  4.4161849887448840e-02  1.6452654811234042e-02  3.3810046128088675e-02  4.1598147364272031e-02  2.6338737439194779e-02  4.6313842084553469e-02  3.7862431913907157e-05  4.8144472446495272e-02  4.3449457851073611e-02  7.0755040667484281e-02  8.3087533447500966e-04  4.7981793398942318e-02  5.0168411004889918e-02  4.8249972661888248e-02  4.5942464913405985e-02  1.9587670173181818e-03  6.9539280629703640e-03  1.0731361962972479e-03  2.5781615463817701e-04  4.6343886488510400e-02  1.6594112140566700e-04  3.9084250527405575e-04  3.1934361241360606e-05  1.2113787492637211e-02  1.0281887319424391e-04  4.4323360119820077e-02  4.4198115003138954e-03  4.5445453146495687e-02  2.2658697186874227e-03  4.4978988842417876e-02  4.3135280126866210e-02  1.1222374465085002e-02  5.6702270137177460e-04  4.6298710906138484e-02  5.4207178238950632e-02  3.6316589972161962e-04  3.0998802631281263e-04  2.0993322982391129e-02  3.0563069931781595e-02  7.3090145077904349e-04  5.5067424396016314e-03  9.1904177138249531e-04  6.2136611613438405e-04  2.8754550072860474e-04  3.8984775032817856e-03  4.4420329898171788e-02  1.6754274215534436e-04  2.7842802932778450e-04  6.7254638245895261e-03  7.3388241510729060e-04  3.0004928413630459e-04  2.7699599089559524e-03  2.1046473183775627e-04  6.1698813805751492e-04  6.3117196253573821e-04  6.0566609719604910e-04  2.8697967333924550e-04  3.5967559808034670e-04  9.2169209290566124e-05  4.5649898272751198e-02  3.6557594482489346e-02  2.9883009441099267e-02  4.3011528632767908e-02  3.9097267541114158e-02  5.6404914624291098e-02  3.9927495069932414e-02  2.4147056755509745e-02  3.3301237810178533e-02  4.0227145461196691e-02  4.5328224711082464e-02  2.0397086199755885e-04  4.5382207904203241e-02  1.1510602941009188e-01  8.7245654384800024e-03  1.2542651604522757e-02  8.1783119409276626e-04  6.7881139008290367e-04  3.6617285520204004e-02  3.5678368883903376e-02  6.2535624173264345e-02  3.6999675584848506e-02  1.9803870258458116e-04  3.0954894722179768e-02  2.6039519799333184e-02  3.7303000589571624e-02  3.2600825091113166e-02  4.5881288610548139e-02  4.9759245191618026e-03  9.5629635297165205e-04  3.3880362123935818e-04  8.3955421568167410e-05  3.5024098054493850e-02  4.5083563187973220e-02  4.5082527264236200e-02  4.1515941176343114e-02  3.1930913404755505e-02  4.1654421681970574e-02  2.5144066237625488e-02  3.7096469045474055e-02  3.7115738502697095e-02  4.9799846364751939e-02  1.4082268120794018e-04  6.8516823386198826e-04  1.0190846671092721e-03  1.5856075327183999e-02  1.8926876387240200e-04  3.9208320981995864e-02  1.0847627469968139e-02  1.1815933888226915e-02  4.4609405226320120e-02  7.3601378783768982e-03  3.4129114266711731e-02  1.5417660639515088e-03  3.6851276726572514e-03  4.4740034986947517e-04  1.6128495113640239e-02  4.1045110858031093e-02  3.1872166502194946e-02  1.9061500051633692e-02  3.8283506441606670e-03  6.3912722253590574e-05  1.9886436795827224e-04  3.5812851939174703e-02  5.2427713753037475e-03  1.4051446469811160e-01  2.2896245131404060e-02  2.2125361931980787e-02  1.3278279386355002e-02  1.9492649891801402e-04  3.1258819017224886e-04  5.1779937835421237e-02  1.9236538077294858e-04  1.4594080994693433e-03  3.9709513052017531e-02  5.9173892357962206e-05  1.0886414076867719e-03  1.0251665466069171e-04  1.1452960987200348e-03  4.0572866059861151e-04  4.2611851208665175e-02  1.7075640225875613e-02  4.0537696128132052e-02  5.3674058804379296e-02  3.6742555932550139e-04  4.7395073188582222e-02  4.5963462021476525e-02  4.5572984041996160e-02  2.3011358402594238e-04  3.7018698592080631e-04  1.9236997746696765e-04  3.8001707956589914e-02  4.5920197129210485e-02  4.0948496102034541e-02  3.7515286693313894e-02  1.5761738345400445e-02  2.7558507942758398e-03  5.2447003109747765e-02  1.3048333470256160e-03  4.5323136256530262e-02  5.9140528928390459e-02  5.8670411198497203e-02  5.5595667034267233e-03  2.0420136578493921e-02  3.6379069533413681e-02  1.9157869404659057e-02  4.8092710364823618e-04  4.6180362299071742e-02  1.6650980266442732e-04  3.3499833489475432e-02  3.0312405837801256e-02  7.7632413368676684e-02  4.5967666279844686e-02  5.0141231978197982e-02  4.7512887121204321e-02  5.0527729922011204e-02  3.2481227201020223e-03  2.8808696626101696e-02  5.4206998939180115e-02  1.9145538725992072e-02  6.6797519265607494e-03  3.4687528320629761e-02  4.3959713660611417e-02  2.2976601039466405e-02  1.0597328781191210e-02  2.8429567155627999e-02  2.2690841060872075e-04  8.6551916413157880e-04  4.3422428230925167e-02  4.8881065477549973e-02  2.4807173731156156e-03  2.2563304697308578e-04  3.1101040695768578e-04  1.2801174673226088e-02  6.6080588597394643e-02  8.8159020391365087e-03  1.7251994401456753e-02  4.5062395700791957e-02  3.5775434451642933e-02  2.7825655260497626e-04  8.4479754214095246e-02  1.7349931413389126e-03  1.3492387586425604e-03  3.6739338618607072e-02  3.8357403510626845e-02  4.5512012059955489e-02  2.8102588885435233e-04  1.2544931041658970e-03  3.3364202362635764e-04  3.3063318623604963e-04  5.1165116261522457e-04  3.0910669303026053e-04  1.3594637667276499e-04  8.2802890990529981e-02  3.7171065296946651e-02  4.4026450639550165e-02  4.2463770690471268e-02  1.4069851936313557e-02  3.3456735868150941e-02  4.4571588886975246e-02  6.0798997265128687e-03  1.5184848055418806e-02  7.0799296434086764e-02  4.6486290532476550e-03  5.0482977378729834e-03  1.7592921566602423e-04  2.4936694186008574e-04  7.8643030625452897e-04  5.6775865464566615e-04  4.0888013451669897e-02  1.8144673686778655e-04  4.4732784935770153e-02  4.6481347337235607e-02  4.6471856393290281e-02  4.2998512381408553e-02  4.5296002495826958e-02  4.1755142466805013e-02  4.5209795586886752e-02  4.8669613049888080e-02  4.3096888702077341e-02  4.0423409912626718e-02  3.6880260706710973e-02  4.4316328664306383e-02  2.6970905592249579e-02  1.7431953855002642e-04  1.4268679339260741e-03  1.5177281392510004e-03  9.2338818781383884e-04  5.1972774965709859e-02  5.9220464809049331e-04  1.0773881911064081e-03  3.7654683283092825e-04  8.7291330156867824e-04  2.5307850758988820e-04  1.8522934945841372e-03  3.7493655505840733e-03  3.1101934077819977e-03  5.0349370472164770e-03  2.5921138855449408e-03  4.7178559446047458e-02  1.7399031831566774e-03  1.4404434567928231e-02  4.6203457798926831e-02  7.4410450971771763e-03  2.9589592786839980e-02  3.0915081180795966e-03  4.3013408762609638e-02  1.0868968450702871e-03  2.4501193360488969e-04  2.8294917334830387e-04  3.7013565026173922e-02  5.7972131684554916e-03  3.3495610305155216e-02  5.7730370096053758e-02  6.0603466666202456e-02  1.1177484622146858e-02  3.8611576581459833e-02  3.3850138896054585e-04  1.1975391825106312e-03  4.2834386211100034e-03  4.2162090279569417e-03  4.6634429308550621e-02  1.3400607499594399e-02  4.2306156813546068e-02  2.9374823961451822e-02  3.0619755139559540e-02  5.1757150514885553e-02  4.6533198771410766e-02  5.1168035285150903e-02  6.3379189156167358e-03  1.7926977677432007e-04  3.0737566699717779e-04  2.7523873291514098e-04  3.5234752977937524e-02  3.2700117620987033e-02  4.6056271527710663e-02  2.2204749504524484e-02  3.9879445299343619e-02  1.4230987702592303e-02  4.4337307531762155e-02  4.1000010665568722e-02  2.9350236291318669e-02  7.6048646623730959e-03  1.9494686269621732e-02  3.3371860622361839e-02  3.8402542015031370e-02  4.0682821443173638e-02  4.1724473905461579e-02  1.6801975903429845e-02  2.0193114098054243e-01  1.8438680348416548e-03  7.2866523561336235e-04  7.9492522741502305e-04  8.2733143064856532e-03  1.8424843578196846e-04  4.1742526646827184e-02  2.3925806895120194e-02  7.9400543898193183e-04  3.7718597699666878e-04  2.4207036535318650e-04  6.4295161541605070e-02  5.2129409613227096e-02  5.6240813981668553e-02  6.2399240155558845e-04  4.3238284093864747e-04  4.4542435578516623e-04  4.1545281061419807e-04  5.4783169645397246e-03  4.2087739967833646e-02  3.8050492412964793e-02  4.0279236591136053e-02  9.5568319149940989e-04  4.4452491297694942e-02  2.5020863926925245e-03  4.3404733315698572e-02  4.1491156938139422e-02  3.3306046041549187e-02  3.2149878635793576e-03  5.7899892719940844e-02  3.6350111953969311e-02  2.2405686037563995e-03  5.3198015740823514e-06  5.5191117618480655e-06  3.9783606117609365e-06  3.2542039597428134e-04  2.4077312313871596e-03  3.3342471042212859e-04  1.9101387754031631e-04  3.8779295990296217e-06  1.5639851702301602e-02  8.7641833264407262e-02  1.0857929108663650e-01  4.0776070540442570e-02  6.5182146174398519e-04  2.5394898477578590e-02  3.7185524726962807e-02  3.1635129748012469e-02  3.3177477611083903e-02  4.5286712294395508e-02  4.4430223932396526e-02  4.8569105455060491e-02  4.5653012432668137e-02  2.3656292059176520e-02  4.5275757531380495e-02  3.6105527291708274e-02  3.2523558976035226e-02  5.0476309847651273e-04  2.4567551872140582e-03  5.2540664927551387e-03  2.6715027906200370e-03  2.3722043920146913e-03  1.4460926622687441e-03  5.3148056091763776e-02  1.5498388778657664e-02  2.0547729821977900e-04  2.2207976375481671e-04  3.5433175604564107e-04  4.9068258624766513e-02  2.2022616286905482e-04  1.6817512347752574e-04  3.1029731353704232e-04  2.2474850484479596e-02  2.8753814926769119e-02  2.7951050849225695e-02  1.7728173947048094e-04  4.3373076031261351e-02  4.5119894067549948e-05  6.5039443980139033e-03  3.0093589878705442e-02  1.5268618673456222e-04  3.4944379102924656e-04  4.5604641883269105e-02  3.3109728891567131e-02  3.0423482476508567e-02  3.6507851876165662e-02  4.2587114945195822e-04  6.1698045656885406e-04  4.8338980025593753e-02  4.8099409770256625e-02  4.3550893080792623e-02  3.6883757865662795e-02  4.9143674822722958e-02  5.3123854936733404e-02  5.5114143003687208e-05  5.3621484989000566e-05  2.6510232783063064e-02  2.9104088574256948e-02  3.7610874861240998e-02  2.3469387730979181e-02  5.1104160894686014e-03  9.9617296117284031e-03  1.8301644917173211e-02  2.5757211326501533e-02  6.5042534106918293e-04  2.6378961763771320e-02  2.1006767013096716e-04  1.4494083854698589e-02  4.3391412943096369e-02  1.1471371463255748e-03  5.0060696561179862e-05  2.1699760239490739e-04  4.5464315900699619e-05  1.8508775617230577e-04  3.7524983495662806e-04  5.9271606539924686e-04  9.5050758494441404e-04  1.0387164924453172e-03  1.1334052887288431e-02  4.4587073963310651e-02  4.6472743942542331e-04  2.4117925566865267e-04  3.8456555786525397e-02  4.3511863826043461e-02  3.3784615110287131e-04  3.5774736301285892e-04  4.8568103610202595e-04  3.1927361274910088e-04  3.1939268459324370e-02  2.6731635324748856e-02  3.6872621091754709e-02  3.6750964904144555e-02  5.0801477034835625e-02  3.1328830953098276e-02  2.8783989106395853e-02  4.5680954295844768e-02  3.7718377515375427e-02  3.6483133228046215e-02  1.8025553010879339e-02  4.0461792571367020e-02  2.6584099933079655e-02  3.1785044719353867e-02  5.8668992870075237e-03  3.9560604626603359e-02  2.7506550240578042e-03  3.4981412813750480e-02  1.0093055771313253e-02  4.5018323758410951e-02  2.9522082812299380e-04  3.5114979991689582e-02  5.2347635911800861e-02  4.8508707487936335e-02  1.1155299992043439e-02  8.2436078302366364e-03  2.0235053133651779e-04  2.4519297376014498e-04  5.1853607967860753e-02  3.9364230359946559e-02  4.0566463216479789e-02  4.2738034445642426e-04  5.0823949077009122e-02  4.4662120145549496e-02  3.6476234349640480e-02  3.0753745846977021e-04  2.6115285116566015e-04  4.5368678892178800e-04  1.9250587655235212e-04  4.4388478826458926e-04  9.3956024724211834e-05  3.5438513445714859e-02  3.9069454580259622e-02  3.3709090312778876e-02  4.6042990262787763e-05  3.2724624246495258e-04  5.2574228931774407e-04  4.6733850574369267e-05  1.6011129714188103e-04  1.4285645172043188e-04  5.1133228845317950e-02  1.2660106102936237e-03  1.3949449283169919e-04  3.1892787169397860e-04  2.9799040624886006e-04  2.1372679650983416e-04  4.5673271982344534e-02  4.6268881391531402e-02  4.5431748527444034e-02  2.9836369667675992e-02  2.6034059880810929e-02  4.5072124994002122e-02  6.6324659544555293e-04  1.0247018544535877e-02  7.4476649984378984e-04  3.4180240780894447e-02  2.7778162389074070e-02  9.8047903514108387e-03  4.4720900418653217e-02  1.6034601626123086e-02  7.8659725124937026e-03  4.2793498911062461e-02  3.6356478141798577e-02  2.9180559371257809e-04  2.3758848749157229e-04  4.5429066563278858e-02  1.5779739484595326e-03  5.1764060569305440e-04  4.4818626614741439e-02  4.7518472581320192e-02  4.4922891771051777e-02  3.8179159206929679e-02  1.0699825137376205e-04  4.4989776009222521e-02  3.3809240789408147e-02  2.5915454866642436e-02  2.078989042