<?xml version="1.0"?>
<VTKFile type="UnstructuredGrid"  version="0.1"  >
<UnstructuredGrid>
<Piece  NumberOfPoints="1515" NumberOfCells="2858">
<Points>
<DataArray  type="Float64"  NumberOfComponents="3"  format="ascii">-0.5 -0.0001 0  -0.5 -0.5 0  0.5 -0.5 0  0.5 0.5 0  -0.5 0.5 0  -0.5 0.0001 0  0 0.0001 0  0 -0.0001 0  0 -0.5 0  0 0.5 0  0.5 0 0  -0.25 0.0001 0  -0.25 0.5 0  -0.25 -0.0001 0  0.25 0.5 0  0.25 -0.5 0  0.2500374937493749 0.1875187468746875 0  0.5 -0.25 0  0.25002499 -0.125 0  -0.125 -0.25005 0  -0.125 0.25005 0  0.5 0.25 0  -0.25 -0.5 0  -0.5 -0.25005 0  -0.5 0.25005 0  0.125 -0.3124916691673332 0  0.125 0.3437443727884549 0  0.3187498332767468 -0.3187498332767468 0  -0.3125 -0.3125124974994999 0  -0.3125 0.1875875025005001 0  0.04436566007004419 0.1785185187387698 0  0.3437706224620182 0.3437706224620182 0  -0.359407810625422 0.3594296915637348 0  -0.359407810625422 -0.1406703084362652 0  0.08209948494863104 -0.1484533219292508 0  0.3281296842191969 0.03125624875007487 0  0.1612337437527647 0.0454945319044936 0  0.5 -0.125 0  0.3736573308633327 -0.1902100573489204 0  -0.05632383965282133 -0.1281636979131719 0  -0.1875249975 -0.37501249874975 0  -0.02161822989173764 0.354580025951059 0  -0.2160757009003203 -0.1393657085918785 0  -0.01783801249259284 -0.3526895391541273 0  -0.2160757009003203 0.3607342914081215 0  -0.125 0.0001 0  -0.125 -0.0001 0  -0.1875249975 0.1250875012502501 0  0.5 0.125 0  -0.375 0.0001 0  -0.375 -0.0001 0  -0.5 0.125075 0  -0.375 -0.5 0  -0.5 -0.375025 0  0.3828324180271084 0.1875 0  -0.125 0.5 0  0.5 -0.375 0  0.375 -0.5 0  -0.125 -0.5 0  -0.375 0.5 0  0.125 0.5 0  0.125 -0.5 0  0.5 0.375 0  0.375 0.5 0  -0.5 -0.125075 0  -0.5 0.375025 0  -0.06200365993838185 0.1102431244359298 0  0.3921286730834987 -0.07100003899567721 0  -0.001178265146973292 -0.2342725669761844 0  0.219639755882476 -0.3848202826230195 0  0.1764909845376315 -0.2113963654501196 0  0.2343901841136658 0.3031458088961128 0  0.1561195030924493 -0.06553680147678266 0  0.1485501800845649 0.1522005597879607 0  0.07430925316253632 -0.4062458345836666 0  0.1875 0.4218721863942274 0  0.0625 0.4218721863942275 0  0.2776974776570886 -0.2252166395728846 0  -0.2310132101974821 0.2556304703469177 0  -0.2310132101974821 -0.2444695296530824 0  -0.3906265628125469 -0.3906296862497968 0  -0.3906265628125469 0.1094703137502032 0  -0.2812687506255001 0.09383750062512503 0  -0.2812687506255002 -0.406262499374875 0  -0.4101472686723712 0.2071199254696213 0  -0.4101472686723712 -0.2929800745303787 0  0.2470275540227946 -0.02585328932041452 0  0.4068247800249947 0.09140209453477602 0  -0.1176406316218027 0.3957739114529177 0  0.4080574838155757 -0.2809016730332933 0  0.3125 -0.4219344228213859 0  0.4088486496673779 -0.4088486496673779 0  0.1167033063099591 0.2455046542815969 0  -0.02381261413756171 0.2533622281544139 0  0.02735543470987723 0.08802303626707711 0  0.3144655814479235 0.2551097933485553 0  0.2801337679615206 0.4118308473117793 0  0.4101587089138863 0.2773478512831281 0  -0.09689860681079282 -0.4078094624324944 0  0.213976519574722 -0.2941495474331945 0  -0.318965898965983 0.2781458178971435 0  -0.3125 0.4357826538464097 0  -0.318965898965983 -0.2219541821028565 0  -0.3125 -0.06431734615359029 0  -0.4357704230694522 0.3125375 0  -0.4357704230694522 -0.1875625 0  0.4114732283419867 0.4114732283419867 0  -0.4234646583494089 0.4234743507195528 0  -0.4375 -0.0001 0  -0.4375 0.0001 0  0.3164258563077259 0.1230517971377134 0  0.04931026741366369 0.300666438050672 0  0.2304865209107167 0.1009680687096636 0  0.02061587644269779 -0.08558486663800556 0  0.09390691211100699 -0.2329943594667239 0  0.08896107880644889 -0.006809950500825342 0  -0.1875 0.5 0  -0.1392552316473008 -0.09019077220175532 0  0.4170297537744737 0.008612617817243748 0  -0.4243694331702185 -0.08478222235936261 0  -0.1416933693607303 -0.1709733993077484 0  -0.09511425322415427 -0.3261090638251909 0  -0.04508670308176045 0.4323857419859515 0  -0.4375 -0.5 0  -0.1187189609291948 0.1687838380963837 0  0.3117722643778845 -0.07351457101062323 0  0.1513445599038777 -0.4251753449096755 0  0.04472177709904164 -0.3011105058468416 0  0.001740722226491711 -0.4250539693950984 0  -0.03075788851996441 0.178560406845558 0  0.1766313586052732 -0.1370243862559475 0  -0.0761550533906552 0.3051296889632589 0  -0.1485469487091727 0.3268133048125818 0  0.1930083860569673 0.2386735170085497 0  -0.0625 -0.0001 0  -0.0625 0.0001 0  -0.2878141094770303 -0.1320687430427478 0  -0.2875995151119595 0.3444544772933048 0  -0.24076159142329 -0.07161431170272106 0  -0.24076159142329 0.428485688297279 0  0.4263700347703773 -0.1373417231816959 0  -0.1856875708107399 0.19821478019016 0  0.09322297310683496 0.06338537237428626 0  -0.07466041728962823 -0.1981228067401687 0  0.009513123991135172 -0.1613319531958586 0  0.3092144166352111 -0.1625850961304104 0  0.3437404121717113 -0.2534277690952264 0  0.4379744025071972 -0.2176839612869874 0  -0.1297061011176702 0.07587858854060507 0  -0.1875 0.0001 0  -0.1875 -0.0001 0  -0.1875 -0.5 0  -0.1633110600051376 -0.3090045011162743 0  -0.21877499875025 0.06259999875025002 0  -0.21875 -0.4375124968750625 0  -0.25001874937525 -0.3437749968748749 0  -0.2500187493752501 0.1563250031251251 0  -0.5 -0.4375125 0  -0.5 0.06258749999999999 0  0.08904799960830578 -0.08015900599685086 0  0.4108334826406196 0.3444103681633853 0  -0.0625 -0.5 0  0.4414087098136942 0.2187640586098291 0  0.4382361660678968 0.150288432919798 0  -0.3125 0.0001 0  -0.3125 -0.0001 0  -0.3416336343815852 0.06187820768002609 0  -0.3125 -0.5 0  -0.3416336343815852 -0.4382217923199739 0  0.3168016282179152 0.1891009224226147 0  0.4368875345166075 -0.3446993355472595 0  -0.05975660640830217 -0.2683150418715617 0  0.3458703977041003 0.4362216268226822 0  0.5 0.0625 0  0.5 0.3125 0  0.5 -0.0625 0  0.5 -0.4375 0  0.4375 -0.5 0  -0.04197328552084911 -0.06329083152961786 0  0.2257906778195176 0.03586621568734723 0  0.2286857476565217 0.36951555023185 0  0.3548787707540964 -0.3727197121900284 0  -0.1790795964032311 0.4125871598709088 0  -0.0278086253378118 0.05696913583040467 0  -0.2640893654172825 -0.190631969293494 0  -0.1533594275423699 -0.440977335357388 0  0.5 0.4375 0  0.4375 0.5 0  0.1704903431553385 0.2986434949108457 0  0.08721475273820462 0.1287687476127682 0  0.1875 -0.5 0  -0.0625 0.5 0  -0.4375 0.5 0  -0.3125 0.5 0  0.0625 0.5 0  0.125 0.4359369935185367 0  0.3125 -0.5 0  0.1875 0.5 0  0.0625 -0.5 0  0.5 -0.3125 0  0.5 -0.1875 0  0.5 0.1875 0  0.3125 0.5 0  -0.5 -0.1875625 0  -0.5 -0.3125375 0  -0.5 0.1875625 0  -0.5 0.3125375 0  -0.5 0.4375125 0  -0.5 -0.06258749999999999 0  0.3624254104606854 -0.1274336378120225 0  0.1857642697873453 -0.01126882530927889 0  0.03669184495608396 0.2400031982312926 0  0.04068015303098439 0.3629261100764373 0  -0.3851162339112683 0.269026866774594 0  -0.3758332300807991 -0.1995452526923809 0  -0.446144648587372 -0.34378125 0  -0.446144648587372 0.15631875 0  0.3504998016039519 -0.02589861883840036 0  0.2836777321248879 0.07223256202683162 0  0.21875 -0.4466460035652602 0  0.1774501368185094 -0.3419431906700547 0  0.2592287652038449 -0.3368353496836486 0  -0.4486577479325732 0.09383124999999998 0  -0.40625 0.05134972627205531 0  -0.4486577479325732 -0.40626875 0  -0.40625 -0.4487502737279447 0  -0.07907884158578801 0.2127234227389962 0  0.2826672956396865 0.340725212476292 0  0.2552094419670018 0.2470909165729528 0  0.1235030570827048 -0.3722630563328095 0  -0.1765523267242401 -0.2196325740312749 0  -0.3653881707177284 -0.256399556620603 0  -0.3667881364584723 -0.08355066867835562 0  0.1448027058369495 -0.2589171712236736 0  0.2204190758351349 -0.1742931558527921 0  0.125595190811689 -0.1854735536931699 0  0.2751135960266025 -0.2821263988783404 0  0.04714559827497029 0.03095590907283807 0  -0.3694518448121097 0.4428768192088114 0  -0.4163493718954405 0.3665341424253254 0  0.2065677312659464 -0.0897482605048449 0  0.04596501084766122 -0.2039288085874983 0  -0.3678348759016452 -0.3352975447880205 0  -0.3331464162279717 -0.3812640910313448 0  -0.3678348759016452 0.1648024552119795 0  -0.3331464162279716 0.1188359089686553 0  0.006928352547084439 0.4089314103168539 0  -0.008754979675293741 -0.28865535545956 0  0.454824000777391 -0.03125 0  0.4453084397952883 -0.08555947234219879 0  0.0400389030608287 -0.3591593324500765 0  -0.3565047668221014 0.2214443888382642 0  -0.1767790649240408 0.276160039146296 0  -0.4407450517553578 0.2555055370068006 0  -0.4424041217249974 -0.2449977221857678 0  -0.0101841459589043 0.1278467808234489 0  0.1946666826231925 0.1831558471035277 0  0.1023041143695485 0.1885027832887665 0  0.1383943178482503 0.09688656085697314 0  0.1738321521953076 0.3687430643819201 0  0.09375 -0.4563154147117792 0  -0.2831024225358643 0.2351964925231401 0  -0.2621637468582121 -0.2899792135739121 0  -0.2423367266168128 0.3108531660207947 0  0.3858515397252176 -0.3293494555229365 0  -0.09921103529049136 0.4494480844437962 0  -0.1387217209722605 -0.3554699308920083 0  -0.06600083182100508 0.3836351847814501 0  0.1309954671830858 -0.1114321286398948 0  -0.09375 -0.04518048647049126 0  0.04208778762923838 -0.03517827620526504 0  -0.08165643227347709 0.05080163226699017 0  0.2987692351119484 -0.01319048554596328 0  -0.4136288823076366 -0.1379960981994732 0  -0.1856470434007142 -0.05707095126749213 0  -0.15625 0.4588983004055426 0  0.301492156088943 -0.3696020442065089 0  0.2261014656445051 -0.2255765688706129 0  -0.0254711816102797 0.3040308714413081 0  -0.2359814035109398 0.2051098885755096 0  -0.2142660728025848 -0.3074346058732286 0  -0.0444842016587006 -0.3987296650352232 0  -0.06299926340697812 -0.4476735265309565 0  0.2370119789310965 0.4463270361850639 0  0.1025408210352734 0.3898406831534957 0  0.02523186154102609 0.456121755814222 0  0.2703582881149408 -0.4522472093634566 0  0.34375 -0.460967211410693 0  0.1519529867048281 0.2096636028655708 0  -0.1028373102819492 0.3477334553616848 0  0.2543545123482477 -0.07525044338081299 0  0.4586232703312498 
[...]
<PointData  Scalars="f_184501"> 
<DataArray  type="Float64"  Name="f_184501"  format="ascii">1.4215634552964035e-06  1.3111335658288792e-04  1.4730000387714492e-01  6.4125910225919555e-02  1.3103328737326095e-03  3.2193355205357753e-07  9.9320140079279950e-01  9.7404612027603654e-01  1.1679447540929758e-02  1.7264497898345568e-02  2.8699997936008692e-02  9.8877172334524226e-04  7.8136438118356366e-04  1.0256304727613266e-03  4.6170631709166812e-02  3.0860251966257277e-02  5.5604508733783489e-02  4.1801891225222466e-02  5.5645896826612175e-02  3.0697779467211013e-03  3.5000490199563247e-03  4.7926099975442123e-02  1.7738921262267790e-03  5.2079463522870578e-04  5.9082719395419975e-04  3.4037484035126180e-02  3.7985168435891892e-02  5.2955360558862873e-02  1.8831345600376560e-04  3.7813113213277150e-04  4.0056479168736503e-02  5.2404906273887553e-02  1.5589837296274664e-04  3.6776485626320837e-04  5.6193495475471041e-02  4.1455850319932291e-02  6.2635041594743035e-02  3.2250810482175311e-02  4.8594038691042472e-02  8.0727985308147194e-03  1.9819511928264107e-03  1.5372184391741407e-02  1.9879320427651064e-04  1.2178692503377064e-02  1.0957226225031707e-03  2.7757899685057126e-03  2.7562854365178260e-03  1.9472483444598571e-04  3.4809673082737073e-02  1.1156201459321187e-04  1.1846577615203987e-04  9.3225246617308283e-05  5.4170567159973055e-04  5.6248096669183007e-04  4.7140180960928292e-02  5.5854861103622018e-03  5.5433976411272658e-02  4.7877045877660562e-02  5.1293845041918244e-03  1.2080731306196346e-04  3.3400028574977647e-02  2.0397912619612841e-02  5.9871286425494497e-02  5.3826588297131654e-02  1.0145810224503697e-04  1.1881539970156714e-03  6.4552189669371818e-03  3.9674858547020214e-02  1.8224962791823736e-02  3.7483173449042957e-02  5.4998365415793282e-02  5.0937255861386671e-02  6.8137816429031758e-02  6.4114399046522469e-02  2.0043988933496078e-02  4.1809300447187718e-02  2.6161613177600133e-02  5.5234886225078217e-02  4.0910073102377078e-04  4.2452031216090976e-04  2.8444484353032319e-04  3.1055166884584281e-04  4.7329747050270263e-04  7.0718626075183544e-04  3.8570389927258781e-04  2.1870581953654865e-04  4.6317294045218817e-02  3.9601894533484852e-02  5.6308899386030521e-03  5.1588978252566337e-02  4.4178118563444377e-02  6.1171519906887066e-02  4.5956849652807871e-02  1.5958832169420008e-02  6.2041545168690163e-02  5.2644843583188682e-02  4.8956745522086842e-02  5.0908868995586852e-02  5.7325771082455870e-03  4.6988795120231408e-02  2.1136963083670282e-04  9.5292942702699060e-05  2.2573694031019487e-04  3.9327686402128927e-04  4.7938915172757195e-04  2.6788102558462950e-04  5.5568563918559549e-02  4.5219233720788507e-04  1.6882732048800151e-05  1.3788437297555693e-05  4.7603257948740547e-02  2.8354908976858197e-02  5.3953310358318400e-02  5.0027277711799649e-02  3.9145385442597443e-02  1.5323457612368832e-01  2.4017418668154464e-03  3.7497318901841172e-04  3.6007446828926711e-02  1.4745769979415698e-04  1.2374330843840826e-03  5.6509938491036147e-03  1.2360338877605195e-02  3.1176229693312716e-04  2.3644953963003501e-03  4.5368541914049876e-02  2.6021070049700754e-02  2.2239347718770622e-02  1.2495762104052439e-02  1.5559110912499154e-02  6.4106517780835440e-02  8.5369484258611319e-03  3.1230768433294816e-03  5.4166420862550538e-02  7.3362465609477338e-03  9.2752131240077945e-03  3.5773791758893659e-04  1.8571188059611653e-04  4.7641596345856911e-04  8.4686979754789522e-04  4.0127706878279060e-02  5.5710157274051458e-04  1.0418155205335584e-01  6.6961834513483203e-03  2.6830337143169493e-02  5.2171496288824892e-02  5.3445847559070205e-02  4.4275721864770232e-02  5.0807541537455721e-04  1.8022427016242224e-03  1.8786969624683179e-03  3.1739295549766582e-03  2.1876520223499197e-03  6.0345771158772381e-04  1.8323830652023268e-03  6.8705602214883888e-04  2.8321600224650114e-04  3.1100878304179312e-04  1.3366203726818280e-05  9.0125652320192373e-02  5.3756471448365636e-02  8.0905169906131252e-03  4.5967171958627220e-02  4.1043829797130033e-02  4.0258998467561987e-04  4.2894379504054917e-04  3.2446747007181009e-04  9.6796456947273208e-04  5.1820813105898163e-04  5.1359925152984577e-02  5.5622079423045909e-02  8.6802599986529113e-03  5.2187823135140754e-02  3.0516787917761249e-02  5.4607150011807534e-02  2.9404065827401682e-02  7.9844004852903536e-02  7.2151710075783915e-02  8.5240600471687099e-03  4.7948003913457389e-02  4.7108559157460164e-02  5.3427609218050287e-02  2.4842960041452349e-03  1.3683738579981843e-02  2.4028263883312193e-04  3.6413439079243546e-03  6.3161293999666274e-02  5.8788142497112471e-02  4.6835876279691331e-02  6.7223561150725517e-02  2.5628857907002426e-02  1.0539773787309083e-02  6.1543229989070077e-04  9.5144562229490743e-05  2.5519164163090940e-02  3.4535133571278069e-02  3.7300626747917634e-02  4.0824833950664878e-02  1.5875093767924592e-02  4.8165288732701733e-02  3.6884231248043103e-02  4.1059417673949487e-02  5.0016446709419481e-02  3.0104367851530012e-04  6.3724148312579955e-04  2.9293211635903518e-04  9.3264441191716536e-04  1.3778958397643634e-03  1.5539588704309485e-05  4.5269170290801172e-02  5.3178794228508089e-02  2.9999554183970576e-02  2.4491581063037213e-02  3.3762289833998231e-04  2.9461332818509601e-04  3.3460281891382800e-04  2.3861917723142504e-04  4.0358428486716030e-02  4.5866530958783444e-02  3.0854679060821108e-02  3.7417676468078823e-02  4.6792863221847864e-02  1.1170166849845838e-04  1.1591571752309124e-04  3.5253347406158408e-04  4.0980699718202860e-04  6.8974602630084260e-03  5.0976840574131072e-02  5.4065216620709754e-02  2.7881302677294814e-02  9.1432366845788169e-04  1.8851833301714461e-04  2.9963971791626120e-04  4.3920712919323729e-02  5.9049910777679335e-02  5.4547906473552517e-02  5.2718419473972419e-02  3.3207219123423848e-01  1.1372622482583211e-04  3.8895690403344222e-04  5.8661619672330863e-02  3.2870061739292550e-02  1.6718106899526815e-04  3.0315241156985578e-04  4.2274604240494375e-04  4.4888185222770338e-04  1.8555327223718773e-02  1.4770568840387351e-02  3.2579264661411568e-02  3.5244014295961260e-02  1.8321898486528283e-02  3.8301029489537774e-04  1.4860377600312974e-03  4.3208076641813658e-04  3.1093517048578676e-04  2.4050714992015658e-02  5.8634337286630180e-02  5.3258081404692847e-02  7.3422828478013138e-02  4.2322100990440009e-02  1.9071485593743089e-02  2.5374959361646355e-04  3.5488737735528864e-04  4.9406796467089801e-04  5.5165918462114154e-02  7.2961227868685100e-03  3.4472413002512490e-03  9.8951302778329357e-03  7.1986982701475799e-02  1.5042261719583007e-03  2.1042628397930382e-01  1.6414700581782959e-03  4.2660755944860705e-02  2.6417552021431234e-04  6.6075627791441791e-04  3.7511791259780820e-03  4.7981680166873174e-02  5.5338785349119603e-02  1.5090656866292589e-02  2.4961913352940110e-04  9.2205754756342559e-04  9.0887489377347950e-03  7.8333389165973800e-03  4.5402469210513129e-02  3.2705060620136103e-02  2.0814560029855961e-02  3.5554137739623515e-02  4.4462092214273961e-02  5.5253029348760065e-02  6.3874171303695661e-03  5.0182285084668855e-02  3.5479458424154162e-02  4.2614973624609011e-02  4.3869840379964706e-02  3.2409248180685753e-02  1.2198574911457042e-03  5.9195101390712411e-04  1.1776210800967862e-03  3.4456193406185532e-04  4.1120269471743992e-02  5.0551298495178303e-02  5.2118604760154681e-02  9.0275839925379640e-05  6.5634596699321354e-02  5.9720797421510693e-02  4.7719836284557192e-02  2.6265368951000522e-02  5.3044962373098845e-02  1.5572258583143678e-02  3.8879637281094781e-02  4.9569849805644044e-02  2.5391510184091214e-02  7.1405805597999084e-02  3.1525487375719739e-05  6.0496246149072390e-02  5.1083968318178088e-02  8.2225324561661428e-02  4.5356560491157728e-04  5.5999955230386901e-02  5.9288275933013071e-02  5.6958197256689311e-02  5.3162336161750527e-02  1.1370179382347906e-03  3.4057740433777479e-03  1.2186386004790751e-03  3.3346407125969563e-04  5.4688559341957467e-02  1.0102449519204613e-04  3.2768896804219824e-04  2.8142176686532730e-05  9.5006442193525577e-03  2.0534076258017694e-04  4.9788698046233378e-02  1.6690987560162144e-03  5.2595469636639761e-02  1.3442436308116503e-03  5.1288584405619980e-02  5.2189159960631969e-02  7.7334178049663534e-03  3.1812548260562847e-04  6.0561654421293826e-02  5.0247209294199499e-02  3.9109991107530472e-04  3.3380982341908792e-04  1.4581566831700081e-02  2.4803598679244945e-02  2.9151785219749278e-04  2.1169858616758895e-03  1.0200418923055571e-03  3.6700536549384423e-04  4.2486518351167945e-04  2.5691213609346469e-03  4.9678323471774199e-02  1.6353774756816089e-04  2.1542419703856342e-04  5.5366016491355105e-03  8.8953072568045391e-04  3.8738477970099729e-04  1.8073120017576797e-03  1.9444217517713421e-04  7.3667194870590457e-04  3.1947608538648268e-04  5.6582459355027125e-04  2.5799574347465766e-04  3.9499338806004276e-04  1.8733428793596681e-04  5.5992737621537433e-02  3.7553692289690556e-02  2.8841478011391555e-02  4.7033288121748215e-02  4.1889052552147657e-02  8.8630718655897917e-02  4.8377171255054287e-02  2.1142661724804661e-02  3.9435597830200425e-02  4.7665423886388267e-02  5.1959961471679104e-02  3.2418120582047871e-04  5.6037298136920446e-02  6.7457641407359187e-02  6.8873670221901977e-03  6.8915412226898858e-03  1.0057350783136587e-03  8.4962467921469880e-04  4.0496702406249113e-02  1.8522965912723659e-02  6.0580437686584464e-02  4.4075652010004844e-02  2.8248572759545607e-04  3.2462016203477051e-02  2.2401736582521752e-02  3.6256079585024983e-02  3.1467671960910638e-02  5.4045549886581799e-02  3.7629177771735696e-03  9.3564398013652251e-04  2.3984810611985517e-04  7.2707596514105384e-05  3.4823307332528551e-02  5.2337215414467668e-02  5.3630949129138634e-02  5.0502926173943169e-02  3.6703089481617018e-02  4.0619074747255346e-02  2.6215492342667741e-02  4.4105906025748598e-02  3.8176549931166662e-02  5.8283997974889583e-02  1.4258140505942832e-04  7.3014867290868571e-04  4.6522181389228282e-04  1.1343448864304048e-02  3.0378950229183535e-04  4.3039379130084460e-02  9.7822795312599610e-03  1.0694411388839633e-02  4.4412482378481923e-02  5.0696007103242973e-03  3.9399368603527045e-02  6.1430649501887963e-04  1.8876264848595393e-03  4.1117799191937279e-04  1.3661407638614106e-02  5.3260408771225988e-02  3.6268648360838852e-02  1.6649122395653023e-02  2.0882311431369717e-03  4.4459951490528696e-05  2.4989402797181477e-04  4.2239017829396139e-02  3.3203879216841285e-03  1.6926802639505911e-01  2.2756791909196879e-02  2.2457877590998800e-02  1.0337152557464650e-02  2.1409794623214795e-04  3.6042097701455321e-04  6.1709910237688542e-02  2.9862350221368045e-04  7.3697702695253438e-04  4.2128999764538426e-02  6.9014096055628499e-05  3.6163568865995964e-04  1.2546421824211147e-04  7.4735324391068210e-04  4.4254648618321065e-04  4.6751725031827888e-02  1.4306378752375039e-02  4.9743572755599944e-02  6.4043431197194994e-02  2.2559720408521990e-04  5.6241858526499863e-02  5.2531079451615677e-02  5.0362265837971217e-02  3.3089211337128047e-04  4.3237306788731095e-04  2.5225472791499037e-04  4.4705572544435301e-02  3.2333319655480995e-02  4.8088754311255116e-02  4.5232056219387140e-02  1.3993644868009941e-02  1.0957167709478520e-03  8.3189390428946575e-02  1.2666572372224778e-03  4.9187203450564355e-02  5.7756214824666682e-02  6.9573291291943090e-02  1.7445828310527309e-03  1.1064728204874304e-02  2.8412377085841916e-02  1.3595116701910544e-02  2.4256102336319687e-04  5.3893780112546710e-02  2.8321682112087191e-04  3.9221397080994931e-02  3.5267006883033677e-02  1.2399541644158726e-01  5.4340742694008660e-02  6.6262590089778209e-02  5.9696656925275801e-02  6.0012015631534660e-02  2.3672728581943048e-03  3.0393829566915553e-02  6.3213191331279756e-02  1.6659851195083626e-02  4.8873587947102469e-03  3.8518733710624288e-02  3.9254175622183730e-02  1.4450204092591906e-02  8.2562635311487446e-03  2.2634003253976000e-02  1.7789120638736931e-04  4.7906004896080450e-04  5.1463741121413706e-02  2.6877158973595518e-02  1.6234647943491963e-03  2.3293533979555530e-04  3.0493322642441656e-04  4.8813550154046901e-03  7.2738976946504441e-02  5.7511564962508714e-03  1.5917767108825868e-02  5.2608950302361880e-02  3.5068283019849142e-02  3.0288206166842924e-04  1.0961275092414814e-01  1.0427396963699832e-03  7.8788634187938050e-04  4.2451286388538824e-02  4.4707008497599642e-02  5.1869490384051711e-02  2.7357677359034818e-04  6.8307351833606274e-04  2.0751947329499266e-04  4.4595649645805637e-04  5.8121565931181440e-04  3.0616491590776922e-04  6.1309688648532640e-05  9.1614506033603160e-02  4.4218240229991886e-02  4.9269678851884109e-02  5.0836830178452669e-02  1.3172896284459794e-02  3.8071739845581577e-02  5.2407679899551377e-02  4.2403702541220752e-03  1.1468679757548571e-02  1.5088620104427880e-01  3.0428098712946289e-03  3.5048775036673786e-03  1.6844176105662456e-04  2.5416446053974168e-04  5.1964925895723712e-04  3.8475962458625460e-04  4.3239764127457218e-02  1.6756175987882552e-04  5.0686165467826019e-02  5.3607600805302622e-02  5.3785172980845813e-02  5.2922379522690417e-02  5.4784177787558119e-02  5.0306599759859176e-02  5.3543343024552624e-02  5.7725257023603177e-02  5.1501937753249252e-02  4.8168527832881100e-02  4.4207218297459952e-02  5.2570050332882166e-02  3.0829813066556161e-02  2.9874398242165593e-04  1.3773636288199108e-03  1.3717845846051276e-03  1.0384384956471997e-03  6.1690937787997016e-02  3.4722797101617364e-04  6.7107838767447290e-04  5.0577748230575057e-04  8.9435375836541535e-04  3.9956804733887733e-04  1.1966041543180262e-03  2.8825189988768750e-03  2.3511016590602725e-03  4.0591109599623452e-03  1.9020990271688581e-03  5.6791486517664261e-02  1.1792811472348447e-03  1.1951764246119450e-02  6.7738447040092145e-02  5.1405836886632764e-03  2.8489595365670497e-02  1.6635745585945054e-03  4.7456612690717583e-02  7.2215156324510526e-04  2.1882737033639173e-04  2.3984269332844355e-04  4.3525814437842293e-02  3.1064790203924192e-03  3.9968737602551103e-02  8.0913749665831328e-02  6.9913255905056607e-02  9.7468155597810521e-03  4.6791547842108219e-02  3.3010143593388840e-04  8.0017838153933888e-04  3.5203233092112938e-03  3.4733315635150979e-03  5.4270569548127208e-02  7.5706187476441778e-03  5.0986503467298924e-02  2.7883436367969281e-02  3.3487485130602117e-02  6.0791917749211881e-02  5.4349320881997620e-02  6.6066662170557885e-02  4.8300896822510674e-03  3.1171759117542050e-04  4.0851851763482934e-04  3.8168179254249797e-04  4.0676693034620695e-02  3.7167748766893598e-02  5.4086249329296225e-02  2.2874659272487958e-02  4.4624355101659761e-02  5.2854895191783808e-03  4.9742951965444294e-02  4.3969218410408344e-02  3.4502841233873920e-02  6.5156356616768701e-03  9.4932901573903834e-03  3.8500491849353433e-02  4.4554511857245682e-02  4.7549099455074281e-02  4.8933880946547201e-02  1.2994757155578979e-02  6.3206733300313522e-01  1.2981582428823928e-03  6.7823956610188192e-04  6.9472681469227317e-04  5.5613613804027075e-03  2.2763025197665294e-04  4.9505356210106162e-02  2.3179452937907852e-02  4.9604579190099711e-04  4.4435127437072260e-04  2.4273861176087291e-04  8.3176803235520555e-02  5.2947278267790950e-02  6.9926086068609783e-02  6.1117098360761112e-04  4.3668014365593350e-04  4.4522895306897735e-04  4.4301494909328772e-04  4.4446197586321271e-03  5.3271845458569451e-02  4.7193334179311000e-02  5.2151508438883644e-02  5.4776423122647076e-04  5.3479048512334121e-02  9.3638977045537900e-04  4.9559910146616072e-02  4.9685185255387655e-02  3.1725633223973287e-02  1.9277753518995642e-03  6.7255583512737777e-02  3.6943576038646696e-02  1.4222227739632534e-03  4.2340034240443102e-06  4.3722139399951274e-06  3.2521334315914539e-06  3.8485145882732701e-04  8.7696809980316020e-04  2.1487280450634903e-04  1.7750883320204877e-04  3.1989103215831225e-06  1.2931766207895941e-02  1.0159551533952527e-01  1.2569219989255814e-01  4.3766835694416036e-02  7.4514877192840352e-04  2.3266237624391676e-02  3.8367186273812699e-02  3.0893432632676753e-02  3.3023415676505852e-02  5.0571928690154651e-02  4.9365416319501344e-02  5.6333644459469090e-02  5.3074169920741973e-02  2.0452473426080534e-02  5.1495711848180845e-02  4.2736862256023828e-02  3.5389824995987744e-02  6.3966658798593544e-04  1.5643260340516545e-03  3.6660448955085929e-03  2.4140619678904955e-03  2.2884729965490258e-03  1.4413222830532827e-03  6.1925803531175078e-02  5.0567862442496333e-03  2.6287802963664359e-04  2.9734273495475436e-04  2.5245120641256982e-04  5.7887641279836498e-02  2.9266269511742072e-04  2.3362345581886916e-04  2.0523427736914311e-04  1.9680031263411550e-02  2.6549140540234110e-02  3.1322709897722859e-02  1.5583526679763341e-04  5.9193592446907153e-02  7.7062403655562306e-05  3.5375189259106198e-03  3.3872966129841732e-02  1.5048922039897434e-04  3.8669007806856629e-04  5.2130685176477357e-02  3.9805606050242116e-02  2.9544482096124074e-02  3.7523531992190114e-02  3.9030025685558969e-04  3.1089944872338056e-04  5.7402986456597332e-02  5.6120311121493682e-02  5.1282045308567309e-02  4.4707787419639038e-02  5.6304427692367640e-02  6.2837215953628303e-02  4.4987438818405612e-05  4.6147626540052774e-05  2.9255379045216082e-02  3.2423853727347636e-02  4.2220992686723219e-02  2.1396574224868840e-02  3.6447030172788212e-03  7.8033942823667948e-03  1.8143486017874300e-02  2.8673116364629981e-02  4.2694735519754006e-04  2.8080845561085865e-02  3.3295120140091678e-04  1.3751339715827302e-02  4.8155844732602836e-02  1.3584826504364730e-03  4.1433554953309734e-05  1.8887167480529049e-04  3.9984899109502876e-05  1.7257445983679857e-04  4.5496055484760923e-04  6.3105278255514796e-04  1.0633931037407028e-03  1.2103127775291898e-03  9.0456472111458824e-03  5.0923851502769041e-02  4.9769343280242205e-04  2.4250184789226256e-04  4.2428397789018565e-02  4.9656720990494528e-02  3.7193589406755539e-04  4.1730866260475803e-04  3.1916760892435861e-04  2.2096376951476310e-04  2.9279362726380917e-02  2.2269054945255860e-02  3.2992058437667234e-02  4.3329509889582882e-02  6.0078463675298496e-02  3.2426496014037631e-02  3.1027021708485449e-02  5.2384518777210037e-02  4.5141623397571447e-02  4.3285264847357952e-02  1.5560239825597229e-02  4.8846664647752155e-02  2.4880063023382516e-02  3.6717073445100716e-02  4.6376056610622452e-03  4.7168812859204379e-02  1.7482200397358131e-03  4.0693641065433647e-02  8.9495077882146348e-03  5.1581763155598870e-02  3.4092191160820336e-04  4.0696724045456018e-02  7.5436306701271147e-02  5.7502052155619862e-02  8.9636020050843802e-03  7.0934517825906587e-03  3.1992740385730265e-04  2.8211879947260567e-04  2.3438337490400162e-02  4.7099164611984864e-02  4.9596794570066209e-02  2.4264582282977699e-04  5.9192666682852300e-02  5.2382330525111376e-02  3.6549994373115319e-02  3.3904335944873046e-04  2.3420064256976603e-04  3.4712033257514833e-04  1.9189715679090430e-04  3.6587114565875723e-04  8.8066603936912504e-05  3.8110502554509360e-02  4.2377286701558645e-02  3.4879645237232762e-02  4.1415012708677022e-05  3.6759218744812514e-04  3.6788122247566790e-04  4.1371678708953006e-05  2.1309695873620465e-04  1.2813540184967645e-04  6.0740538371977529e-02  6.8291650998618945e-04  1.6330195546912973e-04  4.1505147496144739e-04  4.1961186686908706e-04  1.9495622436692210e-04  5.2601922183180785e-02  5.4931046139976535e-02  5.3384541421557477e-02  2.9834026090269097e-02  2.6324183500145846e-02  5.1401246527921697e-02  6.6052422478447880e-04  4.6445768526971257e-03  3.8884231824485330e-04  3.9796148400895105e-02  3.1670613915678422e-02  7.2258869152967246e-03  5.2358075669569584e-02  1.0032422709744871e-02  4.7528941197293503e-03  5.5962671846641512e-02  4.2323937038406111e-02  3.2926487000266866e-04  2.7443156274783992e-04  5.2076304722552244e-02  1.0858212926835675e-03  5.0962269400132206e-04  5.1583950293868273e-02  4.8190820012908066e-02  4.6920845945436856e-02  4.4287529483088207e-02  1.6720440950936409e-04  5.1930826039540710e-02  3.3278548153599784e-02  2.7386120163565467e-02  1.951544028