<?xml version="1.0"?>
<VTKFile type="UnstructuredGrid"  version="0.1"  >
<UnstructuredGrid>
<Piece  NumberOfPoints="1515" NumberOfCells="2858">
<Points>
<DataArray  type="Float64"  NumberOfComponents="3"  format="ascii">-0.5 -0.0001 0  -0.5 -0.5 0  0.5 -0.5 0  0.5 0.5 0  -0.5 0.5 0  -0.5 0.0001 0  0 0.0001 0  0 -0.0001 0  0 -0.5 0  0 0.5 0  0.5 0 0  -0.25 0.0001 0  -0.25 0.5 0  -0.25 -0.0001 0  0.25 0.5 0  0.25 -0.5 0  0.2500374937493749 0.1875187468746875 0  0.5 -0.25 0  0.25002499 -0.125 0  -0.125 -0.25005 0  -0.125 0.25005 0  0.5 0.25 0  -0.25 -0.5 0  -0.5 -0.25005 0  -0.5 0.25005 0  0.125 -0.3124916691673332 0  0.125 0.3437443727884549 0  0.3187498332767468 -0.3187498332767468 0  -0.3125 -0.3125124974994999 0  -0.3125 0.1875875025005001 0  0.04436566007004419 0.1785185187387698 0  0.3437706224620182 0.3437706224620182 0  -0.359407810625422 0.3594296915637348 0  -0.359407810625422 -0.1406703084362652 0  0.08209948494863104 -0.1484533219292508 0  0.3281296842191969 0.03125624875007487 0  0.1612337437527647 0.0454945319044936 0  0.5 -0.125 0  0.3736573308633327 -0.1902100573489204 0  -0.05632383965282133 -0.1281636979131719 0  -0.1875249975 -0.37501249874975 0  -0.02161822989173764 0.354580025951059 0  -0.2160757009003203 -0.1393657085918785 0  -0.01783801249259284 -0.3526895391541273 0  -0.2160757009003203 0.3607342914081215 0  -0.125 0.0001 0  -0.125 -0.0001 0  -0.1875249975 0.1250875012502501 0  0.5 0.125 0  -0.375 0.0001 0  -0.375 -0.0001 0  -0.5 0.125075 0  -0.375 -0.5 0  -0.5 -0.375025 0  0.3828324180271084 0.1875 0  -0.125 0.5 0  0.5 -0.375 0  0.375 -0.5 0  -0.125 -0.5 0  -0.375 0.5 0  0.125 0.5 0  0.125 -0.5 0  0.5 0.375 0  0.375 0.5 0  -0.5 -0.125075 0  -0.5 0.375025 0  -0.06200365993838185 0.1102431244359298 0  0.3921286730834987 -0.07100003899567721 0  -0.001178265146973292 -0.2342725669761844 0  0.219639755882476 -0.3848202826230195 0  0.1764909845376315 -0.2113963654501196 0  0.2343901841136658 0.3031458088961128 0  0.1561195030924493 -0.06553680147678266 0  0.1485501800845649 0.1522005597879607 0  0.07430925316253632 -0.4062458345836666 0  0.1875 0.4218721863942274 0  0.0625 0.4218721863942275 0  0.2776974776570886 -0.2252166395728846 0  -0.2310132101974821 0.2556304703469177 0  -0.2310132101974821 -0.2444695296530824 0  -0.3906265628125469 -0.3906296862497968 0  -0.3906265628125469 0.1094703137502032 0  -0.2812687506255001 0.09383750062512503 0  -0.2812687506255002 -0.406262499374875 0  -0.4101472686723712 0.2071199254696213 0  -0.4101472686723712 -0.2929800745303787 0  0.2470275540227946 -0.02585328932041452 0  0.4068247800249947 0.09140209453477602 0  -0.1176406316218027 0.3957739114529177 0  0.4080574838155757 -0.2809016730332933 0  0.3125 -0.4219344228213859 0  0.4088486496673779 -0.4088486496673779 0  0.1167033063099591 0.2455046542815969 0  -0.02381261413756171 0.2533622281544139 0  0.02735543470987723 0.08802303626707711 0  0.3144655814479235 0.2551097933485553 0  0.2801337679615206 0.4118308473117793 0  0.4101587089138863 0.2773478512831281 0  -0.09689860681079282 -0.4078094624324944 0  0.213976519574722 -0.2941495474331945 0  -0.318965898965983 0.2781458178971435 0  -0.3125 0.4357826538464097 0  -0.318965898965983 -0.2219541821028565 0  -0.3125 -0.06431734615359029 0  -0.4357704230694522 0.3125375 0  -0.4357704230694522 -0.1875625 0  0.4114732283419867 0.4114732283419867 0  -0.4234646583494089 0.4234743507195528 0  -0.4375 -0.0001 0  -0.4375 0.0001 0  0.3164258563077259 0.1230517971377134 0  0.04931026741366369 0.300666438050672 0  0.2304865209107167 0.1009680687096636 0  0.02061587644269779 -0.08558486663800556 0  0.09390691211100699 -0.2329943594667239 0  0.08896107880644889 -0.006809950500825342 0  -0.1875 0.5 0  -0.1392552316473008 -0.09019077220175532 0  0.4170297537744737 0.008612617817243748 0  -0.4243694331702185 -0.08478222235936261 0  -0.1416933693607303 -0.1709733993077484 0  -0.09511425322415427 -0.3261090638251909 0  -0.04508670308176045 0.4323857419859515 0  -0.4375 -0.5 0  -0.1187189609291948 0.1687838380963837 0  0.3117722643778845 -0.07351457101062323 0  0.1513445599038777 -0.4251753449096755 0  0.04472177709904164 -0.3011105058468416 0  0.001740722226491711 -0.4250539693950984 0  -0.03075788851996441 0.178560406845558 0  0.1766313586052732 -0.1370243862559475 0  -0.0761550533906552 0.3051296889632589 0  -0.1485469487091727 0.3268133048125818 0  0.1930083860569673 0.2386735170085497 0  -0.0625 -0.0001 0  -0.0625 0.0001 0  -0.2878141094770303 -0.1320687430427478 0  -0.2875995151119595 0.3444544772933048 0  -0.24076159142329 -0.07161431170272106 0  -0.24076159142329 0.428485688297279 0  0.4263700347703773 -0.1373417231816959 0  -0.1856875708107399 0.19821478019016 0  0.09322297310683496 0.06338537237428626 0  -0.07466041728962823 -0.1981228067401687 0  0.009513123991135172 -0.1613319531958586 0  0.3092144166352111 -0.1625850961304104 0  0.3437404121717113 -0.2534277690952264 0  0.4379744025071972 -0.2176839612869874 0  -0.1297061011176702 0.07587858854060507 0  -0.1875 0.0001 0  -0.1875 -0.0001 0  -0.1875 -0.5 0  -0.1633110600051376 -0.3090045011162743 0  -0.21877499875025 0.06259999875025002 0  -0.21875 -0.4375124968750625 0  -0.25001874937525 -0.3437749968748749 0  -0.2500187493752501 0.1563250031251251 0  -0.5 -0.4375125 0  -0.5 0.06258749999999999 0  0.08904799960830578 -0.08015900599685086 0  0.4108334826406196 0.3444103681633853 0  -0.0625 -0.5 0  0.4414087098136942 0.2187640586098291 0  0.4382361660678968 0.150288432919798 0  -0.3125 0.0001 0  -0.3125 -0.0001 0  -0.3416336343815852 0.06187820768002609 0  -0.3125 -0.5 0  -0.3416336343815852 -0.4382217923199739 0  0.3168016282179152 0.1891009224226147 0  0.4368875345166075 -0.3446993355472595 0  -0.05975660640830217 -0.2683150418715617 0  0.3458703977041003 0.4362216268226822 0  0.5 0.0625 0  0.5 0.3125 0  0.5 -0.0625 0  0.5 -0.4375 0  0.4375 -0.5 0  -0.04197328552084911 -0.06329083152961786 0  0.2257906778195176 0.03586621568734723 0  0.2286857476565217 0.36951555023185 0  0.3548787707540964 -0.3727197121900284 0  -0.1790795964032311 0.4125871598709088 0  -0.0278086253378118 0.05696913583040467 0  -0.2640893654172825 -0.190631969293494 0  -0.1533594275423699 -0.440977335357388 0  0.5 0.4375 0  0.4375 0.5 0  0.1704903431553385 0.2986434949108457 0  0.08721475273820462 0.1287687476127682 0  0.1875 -0.5 0  -0.0625 0.5 0  -0.4375 0.5 0  -0.3125 0.5 0  0.0625 0.5 0  0.125 0.4359369935185367 0  0.3125 -0.5 0  0.1875 0.5 0  0.0625 -0.5 0  0.5 -0.3125 0  0.5 -0.1875 0  0.5 0.1875 0  0.3125 0.5 0  -0.5 -0.1875625 0  -0.5 -0.3125375 0  -0.5 0.1875625 0  -0.5 0.3125375 0  -0.5 0.4375125 0  -0.5 -0.06258749999999999 0  0.3624254104606854 -0.1274336378120225 0  0.1857642697873453 -0.01126882530927889 0  0.03669184495608396 0.2400031982312926 0  0.04068015303098439 0.3629261100764373 0  -0.3851162339112683 0.269026866774594 0  -0.3758332300807991 -0.1995452526923809 0  -0.446144648587372 -0.34378125 0  -0.446144648587372 0.15631875 0  0.3504998016039519 -0.02589861883840036 0  0.2836777321248879 0.07223256202683162 0  0.21875 -0.4466460035652602 0  0.1774501368185094 -0.3419431906700547 0  0.2592287652038449 -0.3368353496836486 0  -0.4486577479325732 0.09383124999999998 0  -0.40625 0.05134972627205531 0  -0.4486577479325732 -0.40626875 0  -0.40625 -0.4487502737279447 0  -0.07907884158578801 0.2127234227389962 0  0.2826672956396865 0.340725212476292 0  0.2552094419670018 0.2470909165729528 0  0.1235030570827048 -0.3722630563328095 0  -0.1765523267242401 -0.2196325740312749 0  -0.3653881707177284 -0.256399556620603 0  -0.3667881364584723 -0.08355066867835562 0  0.1448027058369495 -0.2589171712236736 0  0.2204190758351349 -0.1742931558527921 0  0.125595190811689 -0.1854735536931699 0  0.2751135960266025 -0.2821263988783404 0  0.04714559827497029 0.03095590907283807 0  -0.3694518448121097 0.4428768192088114 0  -0.4163493718954405 0.3665341424253254 0  0.2065677312659464 -0.0897482605048449 0  0.04596501084766122 -0.2039288085874983 0  -0.3678348759016452 -0.3352975447880205 0  -0.3331464162279717 -0.3812640910313448 0  -0.3678348759016452 0.1648024552119795 0  -0.3331464162279716 0.1188359089686553 0  0.006928352547084439 0.4089314103168539 0  -0.008754979675293741 -0.28865535545956 0  0.454824000777391 -0.03125 0  0.4453084397952883 -0.08555947234219879 0  0.0400389030608287 -0.3591593324500765 0  -0.3565047668221014 0.2214443888382642 0  -0.1767790649240408 0.276160039146296 0  -0.4407450517553578 0.2555055370068006 0  -0.4424041217249974 -0.2449977221857678 0  -0.0101841459589043 0.1278467808234489 0  0.1946666826231925 0.1831558471035277 0  0.1023041143695485 0.1885027832887665 0  0.1383943178482503 0.09688656085697314 0  0.1738321521953076 0.3687430643819201 0  0.09375 -0.4563154147117792 0  -0.2831024225358643 0.2351964925231401 0  -0.2621637468582121 -0.2899792135739121 0  -0.2423367266168128 0.3108531660207947 0  0.3858515397252176 -0.3293494555229365 0  -0.09921103529049136 0.4494480844437962 0  -0.1387217209722605 -0.3554699308920083 0  -0.06600083182100508 0.3836351847814501 0  0.1309954671830858 -0.1114321286398948 0  -0.09375 -0.04518048647049126 0  0.04208778762923838 -0.03517827620526504 0  -0.08165643227347709 0.05080163226699017 0  0.2987692351119484 -0.01319048554596328 0  -0.4136288823076366 -0.1379960981994732 0  -0.1856470434007142 -0.05707095126749213 0  -0.15625 0.4588983004055426 0  0.301492156088943 -0.3696020442065089 0  0.2261014656445051 -0.2255765688706129 0  -0.0254711816102797 0.3040308714413081 0  -0.2359814035109398 0.2051098885755096 0  -0.2142660728025848 -0.3074346058732286 0  -0.0444842016587006 -0.3987296650352232 0  -0.06299926340697812 -0.4476735265309565 0  0.2370119789310965 0.4463270361850639 0  0.1025408210352734 0.3898406831534957 0  0.02523186154102609 0.456121755814222 0  0.2703582881149408 -0.4522472093634566 0  0.34375 -0.460967211410693 0  0.1519529867048281 0.2096636028655708 0  -0.1028373102819492 0.3477334553616848 0  0.2543545123482477 -0.07525044338081299 0  0.4586232703312498 
[...]
<PointData  Scalars="f_184501"> 
<DataArray  type="Float64"  Name="f_184501"  format="ascii">1.6150016481868689e-06  2.2922524606651165e-04  1.1002223877124873e-01  4.6450000921506543e-02  9.4962166176451417e-04  3.4829709447387407e-07  3.8793350879032945e-01  3.8875024409342374e-01  1.1352021553073010e-02  1.7739847374502130e-02  2.2850585254535642e-02  9.3024843683223017e-04  1.2600421017623746e-03  1.0367140963775266e-03  3.7117902018658874e-02  2.5160829804100761e-02  3.9870743069893688e-02  3.0108199287392206e-02  3.8355966558143453e-02  4.6763897331555350e-03  5.4495222133476946e-03  3.5642963503950811e-02  2.2488176240999824e-03  4.8759841936409196e-04  5.0289883855486074e-04  2.9675889216732983e-02  3.3077144470110363e-02  3.9676832146580333e-02  2.7742186209837356e-04  2.0039543628940943e-04  3.8609082483838805e-02  3.9388499264952637e-02  6.2046267560019288e-05  2.9029897731760388e-04  4.7203475898409786e-02  3.1067347680351572e-02  3.8762552541096930e-02  2.4413296386081869e-02  3.5323517832936135e-02  1.5379894198322749e-02  2.6541259813085373e-03  1.6665717763109589e-02  2.1399742904449669e-04  1.3047481615682512e-02  1.7240437134897629e-03  2.6546135826351776e-03  2.6869838433915176e-03  3.1238685501010932e-04  2.7146699901355958e-02  1.1353181329923024e-04  1.2849404258120537e-04  9.1730155538812005e-05  7.7574844960540893e-04  4.3147420651761908e-04  3.4876497896971115e-02  6.8100190485024499e-03  4.0353745728745380e-02  3.6700519214371369e-02  5.6269868735737139e-03  4.4262581089960713e-05  2.9764880392080577e-02  1.7948414449608534e-02  4.3523039399585024e-02  4.0559675767198961e-02  1.0868398079572724e-04  9.0590126678666088e-04  1.4777453473337625e-02  2.9713748308723600e-02  2.0773838811262314e-02  3.0404533785744099e-02  4.1556004255452993e-02  3.9344385785967356e-02  4.1697654581708821e-02  4.5266991257277428e-02  1.8650759882066777e-02  3.4925794628692303e-02  2.4878769657424880e-02  4.0138680374066142e-02  7.1552562969638548e-04  7.1232024361315917e-04  3.4946093274419596e-04  2.5679872097424653e-04  3.0817603763645955e-04  1.0442667435211033e-03  2.7104583340744395e-04  1.5192995605860628e-04  3.2847383538991026e-02  3.0069991059002595e-02  7.0282924851106082e-03  3.7803788658438350e-02  3.4274557352542596e-02  4.5651303781449139e-02  3.8401347996880414e-02  1.8808485006520645e-02  6.2505171882146007e-02  3.8866832550112002e-02  3.8345785235369259e-02  3.7663334790784202e-02  6.5417218102329817e-03  3.6903367360363988e-02  1.1834982202753495e-04  2.0974922891510620e-04  1.4973242551660158e-04  3.4348030033014477e-04  3.2492887958901571e-04  2.2635900742309513e-04  4.1223476802660280e-02  2.6798459514117454e-04  1.9184382786381407e-05  1.4978422665479420e-05  3.4657788585293274e-02  2.7448288290262211e-02  3.7281396251130708e-02  6.2200902420080730e-02  3.4919951442202668e-02  5.5136532013565692e-02  3.2787208953396867e-03  8.7410715762553800e-04  2.7681111728954093e-02  1.4524665167865697e-04  2.5956092968304422e-03  7.0357250518094990e-03  1.3525314514405596e-02  4.4744187991338475e-04  4.7495124270206125e-03  3.2873485123426326e-02  2.2530912308127132e-02  2.2083423471368917e-02  1.2545276844137133e-02  2.1393125676979537e-02  4.3810257984334584e-02  1.0639265236426755e-02  4.4320961230081999e-03  4.1035629870557054e-02  7.8266424230278766e-03  8.5138993221737097e-03  2.2907247105937603e-04  3.0152613806162185e-04  3.3699088670657580e-04  1.3440966996872044e-03  2.9763722142459856e-02  1.1765093017843497e-03  5.6435303777137152e-02  1.0171901283478673e-02  3.2570363572560643e-02  3.7220251839270739e-02  3.9099653695427131e-02  3.2377296337129213e-02  1.0722732860641774e-03  1.6447161508359124e-03  1.8562014643229668e-03  3.7121272294277801e-03  3.1427752400646817e-03  3.9917703750184876e-04  2.3552232527018933e-03  1.0634337337543846e-03  1.4925566763787930e-04  2.1417484201484671e-04  1.4266911035278606e-05  5.7467608795047094e-02  3.9819183782331728e-02  8.3127873947099976e-03  3.4323514386528663e-02  3.1078591818305638e-02  3.9089341095195726e-04  4.4889379013666878e-04  2.7457055421088478e-04  1.3250618424172863e-03  7.6016197941369758e-04  3.7332398210966518e-02  4.0871618789560353e-02  1.0903526479205861e-02  3.9709547381884903e-02  2.4262908905676932e-02  4.0003540166806989e-02  2.2973501855348012e-02  5.9269005008227744e-02  5.3839576556228848e-02  2.2213102300470178e-02  3.3565968753917083e-02  3.7682158224699738e-02  4.0201168809751615e-02  3.4287400211227208e-03  4.0848895924301729e-02  2.0824728358897167e-04  4.2784477426946336e-03  4.5770964628409946e-02  4.3227159117549728e-02  3.7950568063486241e-02  5.0871872389665965e-02  2.1639536707049104e-02  1.1730474200018928e-02  3.9019072320419467e-04  2.2782891255127016e-04  2.4257535143315578e-02  3.0572764544633951e-02  2.9467842678868417e-02  3.4286972810469975e-02  1.4627510474101700e-02  3.4640223889313655e-02  2.7071728911789238e-02  3.1199330554468031e-02  3.8831347104637558e-02  3.0304351164706713e-04  5.5137264480858929e-04  2.6740323657447045e-04  7.4697484627825415e-04  1.0204557670862584e-03  1.7458520071705537e-05  3.3019600921794769e-02  3.4588973445750529e-02  2.9971017660835056e-02  2.3951239333194929e-02  1.8463873003720185e-04  2.0264227512592817e-04  2.6036806372679465e-04  1.9961130356316981e-04  3.0297569764802003e-02  3.3346192500952797e-02  2.5457036029141081e-02  3.1039451921324474e-02  3.6311021814718153e-02  1.0359442223692300e-04  1.0895925715957095e-04  3.1347590116373003e-04  5.4305288142523177e-04  1.0414894099951298e-02  3.9106097899476201e-02  4.0113785382476702e-02  2.4606506586653643e-02  1.6756492802371974e-03  1.1447473101452811e-04  2.7341999975060544e-04  3.6263337255330534e-02  4.1708891144737387e-02  4.2996824405174272e-02  3.9505913470413788e-02  9.8595758882158144e-02  4.4478518229934514e-05  2.2519372893697919e-04  3.8773824201623869e-02  3.3103066304001581e-02  1.8099227248681468e-04  4.7104329694232737e-04  2.9277048180056475e-04  3.1774877731830816e-04  1.8982977965508709e-02  1.6371608850774582e-02  2.5279143643264862e-02  2.6750028111383575e-02  1.8033259054399151e-02  2.1422833418167602e-04  2.4528531408719999e-03  3.1343232012703679e-04  2.5270491742356737e-04  3.4903622763417852e-02  4.2099231107632071e-02  4.3266094810297563e-02  4.6718340725181370e-02  3.5328817209205277e-02  1.7276611557304870e-02  1.8189208820565492e-04  5.7334486611795702e-04  8.3271204504357119e-04  4.0809543844988777e-02  8.6129786980839781e-03  4.4323415245170516e-03  1.1414259832277141e-02  4.8231206219928484e-02  2.5029184458526224e-03  1.0002363321963349e-01  4.7238081897637806e-03  3.1493150607210224e-02  2.3432184087879206e-04  4.5605715270900733e-04  4.8389249056049960e-03  3.6823548700949338e-02  4.0841075954509150e-02  1.6941306645524259e-02  3.2482142069929933e-04  1.4321628780816218e-03  9.7857707927147541e-03  8.2744014789345871e-03  3.6735816965647115e-02  2.9533066255668830e-02  2.0680286407857455e-02  2.8475635142687736e-02  3.4383322839817945e-02  4.2222312795535608e-02  8.0296049695096888e-03  3.4928336495538559e-02  2.7499616099823855e-02  3.1825339131169771e-02  3.2741918693847960e-02  2.5391926921233859e-02  1.6413286685283996e-03  4.8018132318253714e-04  1.6576005127235793e-03  1.5911596036906472e-04  3.5253677641892592e-02  3.7275924869305782e-02  3.8692792767434168e-02  9.3764069714309079e-05  4.8564151121888173e-02  4.4958084592303445e-02  3.4646792116349932e-02  2.6312075262968720e-02  3.8319767434446192e-02  1.4746878056883107e-02  2.9584756437693940e-02  3.6193572749489693e-02  2.3484531919064165e-02  3.9192464596480306e-02  3.4257844552642482e-05  4.1491837114174313e-02  3.7736660989297968e-02  6.1193950778012818e-02  7.8669413192395722e-04  4.1633822478401056e-02  4.3432171399015028e-02  4.1807576151971150e-02  3.9953786993241668e-02  1.8518075013917669e-03  6.6327360532512612e-03  9.3354842875894987e-04  2.2022203669457292e-04  4.0188061234390032e-02  1.6032305735767910e-04  3.5917820309543634e-04  2.8642964277116954e-05  1.1060773186322564e-02  8.3376235126545142e-05  3.8743945511405815e-02  4.2791911773563829e-03  3.9567051064200671e-02  2.1230511643447621e-03  3.9224600431491639e-02  3.7384224041465353e-02  1.0346974366666551e-02  5.4596687004861968e-04  3.9739833477208268e-02  4.8197231677103915e-02  3.1744641095938358e-04  2.7143174130151923e-04  1.9336860225719968e-02  2.7688313393770918e-02  7.2491961522205709e-04  5.3626996227685263e-03  8.0788678375786445e-04  5.9152123552922743e-04  2.4155808729930278e-04  3.6142036176135912e-03  3.8744947919446895e-02  1.5424608560118605e-04  2.6210176143044787e-04  6.1263384965047568e-03  6.3300425467566559e-04  2.6977178776525356e-04  2.5710848901760288e-03  1.8785713970590335e-04  5.3325320884079928e-04  6.0088469469875749e-04  5.3899790013183109e-04  2.5689229770518472e-04  3.1310909386790759e-04  7.3993726104081112e-05  3.9476058909961712e-02  3.2400821487177302e-02  2.6691324077789257e-02  3.7759035641260159e-02  3.4326541943239558e-02  4.7357913178645905e-02  3.4696677183777516e-02  2.1772724528538189e-02  2.9084990525917110e-02  3.4981098812817045e-02  3.9418821740240827e-02  1.6934773948673869e-04  3.9215461603757551e-02  1.0253666003157652e-01  7.9701207864766518e-03  1.1763682989815142e-02  7.0407003585847916e-04  5.8298315193771471e-04  3.2065789496611131e-02  3.3534613971592367e-02  5.4887940844610024e-02  3.2195464577153741e-02  1.7240681442030507e-04  2.7325700058069249e-02  2.3502611938847812e-02  3.3202783007148948e-02  2.9086011260079963e-02  3.9871162055654739e-02  4.5720547620548471e-03  8.4483880862090178e-04  3.2034125738840717e-04  7.5579077853542924e-05  3.1034516853293989e-02  3.9227620043851871e-02  3.9122725516013798e-02  3.5977088614014087e-02  2.7982179274161807e-02  3.7001763750803982e-02  2.2258755036797799e-02  3.2345601108844074e-02  3.2879628564391618e-02  4.3286324749924318e-02  1.2904025185195219e-04  6.0085182526553810e-04  9.9023775105539120e-04  1.4586264708894106e-02  1.5692643712589017e-04  3.4337341307699644e-02  9.7851987438659360e-03  1.0650797349990842e-02  3.9363787229134382e-02  6.8127997007029675e-03  2.9856187564758638e-02  1.4970679910055120e-03  3.4891510678830766e-03  3.9966946084356742e-04  1.4603547540147343e-02  3.5380053151628239e-02  2.7935745727246671e-02  1.7196731417278746e-02  3.6269005989419106e-03  6.3435456658867518e-05  1.6988669379471139e-04  3.1263829800989032e-02  4.8751143854265889e-03  1.2077343362028568e-01  2.0383592171350110e-02  1.9662394800232342e-02  1.2114523211081722e-02  1.7274145739443116e-04  2.7116293870921922e-04  4.4775781823906111e-02  1.6521725173468822e-04  1.3905773744920772e-03  3.5034011505948037e-02  5.6078358846269716e-05  1.0829835401324043e-03  9.3957691498718497e-05  1.0748287491317238e-03  3.5400755852115845e-04  3.7399099578489158e-02  1.5473830598569695e-02  3.5164073508825694e-02  4.6379969843715341e-02  3.5629436252613959e-04  4.1126422236372376e-02  4.0087177585044140e-02  3.9916477030743011e-02  1.9407114116950594e-04  3.1918587918420486e-04  1.6844193127493639e-04  3.3103286089711838e-02  4.1847783942859457e-02  3.5619193245314991e-02  3.2635871783180392e-02  1.4212531820680363e-02  2.6837154729894650e-03  4.4155360244338304e-02  1.1836792059838923e-03  3.9634228395637808e-02  4.8614809262364056e-02  4.8178494008587903e-02  5.4598443033998106e-03  1.9137485870204092e-02  3.2999490828632454e-02  1.7593494753895322e-02  4.5981898898648490e-04  4.0095887945932343e-02  1.3907408232908145e-04  2.9295354394281187e-02  2.6550124745675148e-02  6.4419852261483598e-02  3.9894898616907891e-02  4.2921756718907619e-02  4.0933781775251733e-02  4.3682046326412656e-02  2.9998388863054170e-03  2.5435392102190906e-02  4.6863668626598930e-02  1.7287921468630920e-02  6.1319118782570958e-03  3.0363404977987549e-02  3.9221332885623801e-02  2.1333277658560561e-02  9.6705179035787448e-03  2.5794514768227351e-02  2.1395120853002017e-04  8.1952048641011738e-04  3.7710566357306255e-02  4.5398227309705920e-02  2.3161934374448436e-03  1.9852684211690106e-04  2.7888431944528394e-04  1.2430562340433321e-02  5.7534928082783654e-02  8.1958186041988998e-03  1.5495029457446434e-02  3.9157725776802300e-02  3.1836363634113116e-02  2.4261072429497652e-04  7.2210301086846604e-02  1.6238981607425509e-03  1.2660878298000968e-03  3.2057466245465197e-02  3.3426241075167069e-02  3.9673157052402083e-02  2.4892228302440849e-04  1.1881933850355570e-03  3.1876528933866928e-04  2.8082146350206572e-04  4.4505073592221954e-04  2.7328794953432355e-04  1.3404514265313684e-04  7.0914104843986053e-02  3.2407731754455098e-02  3.8518436757807042e-02  3.6950848795355290e-02  1.2634277490696242e-02  2.9271131739926223e-02  3.8694294363565369e-02  5.6054447885475894e-03  1.3885275627773924e-02  5.8062404195753980e-02  4.3297338210504304e-03  4.6751202941910921e-03  1.5617001751151832e-04  2.1965925525028654e-04  7.3896516847183724e-04  5.3387686109179105e-04  3.6060916825908985e-02  1.6193163704375418e-04  3.9045904667709942e-02  4.0426553063997166e-02  4.0399838914258017e-02  3.7237614052162249e-02  3.9237272263104271e-02  3.6274616785177849e-02  3.9329757462479568e-02  4.2347468419335670e-02  3.7448501938041244e-02  3.5195702936063326e-02  3.2130573718688271e-02  3.8521562482157205e-02  2.3690828104145016e-02  1.4373980074426564e-04  1.2621517167351766e-03  1.3548809973660083e-03  8.0120245859306336e-04  4.4949140037869074e-02  5.6458860533429949e-04  1.0156370270764429e-03  3.1937486201431831e-04  7.6684733331574173e-04  2.1101706293646526e-04  1.7341322925865054e-03  3.4445855625305031e-03  2.8644630184345415e-03  4.6009507462058102e-03  2.3956089182447342e-03  4.0823962004661603e-02  1.6227316645042260e-03  1.3067872137913827e-02  3.9260127671858845e-02  6.8643462245174796e-03  2.6352885823679426e-02  2.9177403519969726e-03  3.7715962963902720e-02  1.0183990080317657e-03  2.1929638448931531e-04  2.5528729817503142e-04  3.2257180671659051e-02  5.4918228423045216e-03  2.9227367543541365e-02  4.8940508829981438e-02  5.2314676179509023e-02  1.0110522141430649e-02  3.3501394623792612e-02  2.9969647347818289e-04  1.1209620222809114e-03  3.8230040659792950e-03  3.7647042148480723e-03  4.0539239100368191e-02  1.2597251574142697e-02  3.6788818204249944e-02  2.6273261713081423e-02  2.6890848372366702e-02  4.4992456552802082e-02  4.0400489781310035e-02  4.3939769924902963e-02  5.8144349957877121e-03  1.5395277648330585e-04  2.6175193390178371e-04  2.3288917117940405e-04  3.0783365390054836e-02  2.8630651665394503e-02  4.0005925395717762e-02  1.9701982993698533e-02  3.4842410865596585e-02  1.3932017434524359e-02  3.8777657895928977e-02  3.6107928341895593e-02  2.5689022814752653e-02  6.9009647545614635e-03  1.8266277107686461e-02  2.9214993988372698e-02  3.3466358203138841e-02  3.5394655823473682e-02  3.6280427198398822e-02  1.5339888196856218e-02  1.5141309181389526e-01  1.7134932280443605e-03  6.4845949369280744e-04  7.1378349699618667e-04  7.6484479050917134e-03  1.7000810552976735e-04  3.6271042992011671e-02  2.1342432748878652e-02  7.5029676675234696e-04  3.2586724810315616e-04  2.2888806453223005e-04  5.5085642355506753e-02  4.5959810680883485e-02  4.8464392830894279e-02  5.5248650354958152e-04  3.8123692892264727e-04  3.9367426633898467e-04  3.6427233677438487e-04  5.0012330819970930e-03  3.6297352526408158e-02  3.2957976893088041e-02  3.4685076451430027e-02  9.0931223216445054e-04  3.8534403404119483e-02  2.4296772786290199e-03  3.7791532645937959e-02  3.6021438526341959e-02  2.9657262949172175e-02  3.0228447071093405e-03  5.0193991169226383e-02  3.2244627214677635e-02  2.0852539940066574e-03  4.8436140136283693e-06  5.0275400613802832e-06  3.6011550172022724e-06  2.8053150512610098e-04  2.3898041774689043e-03  3.1790649659395418e-04  1.7999347132590231e-04  3.5065787739894073e-06  1.4196248944585151e-02  7.5416484096547970e-02  9.3753186463723645e-02  3.5913178935778604e-02  5.6656249969405984e-04  2.2805681425592479e-02  3.2932788607946906e-02  2.8210283609488258e-02  2.9525075061785259e-02  3.9621152052947611e-02  3.8907735248005407e-02  4.2198568556642231e-02  3.9682313977150670e-02  2.1330460523055688e-02  3.9483903067980650e-02  3.1508540927903471e-02  2.8575579868975350e-02  4.3275365798304378e-04  2.2857636154021556e-03  4.8444940517090905e-03  2.3792180286583949e-03  2.0924791694541369e-03  1.2736318836961925e-03  4.6172526602610044e-02  1.5084208426309899e-02  1.7888022682084864e-04  1.9051869596256864e-04  3.3563317588617840e-04  4.2505003454168397e-02  1.8726683034012351e-04  1.4247444461796079e-04  2.9571580350407078e-04  2.0272069865955582e-02  2.5781221199669069e-02  2.4576975575911007e-02  1.5920220928230603e-04  3.7157840422493281e-02  4.0354780075588394e-05  6.1187761977362018e-03  2.6416032911706983e-02  1.3513864763273876e-04  3.0537424353829480e-04  3.9638123619306860e-02  2.8871781437618572e-02  2.7156857104660020e-02  3.2356073232742574e-02  3.8010619245336613e-04  5.8756919706087741e-04  4.1866308459381565e-02  4.1734705736769226e-02  3.7817841435888976e-02  3.2087797282775755e-02  4.2574889320377791e-02  4.6207286576428835e-02  4.9990305130426203e-05  4.8224989218160603e-05  2.3345129438144874e-02  2.5568061764802783e-02  3.2820820349370373e-02  2.1095376446813415e-02  4.7028928781635846e-03  9.0862985941752867e-03  1.6324909235222850e-02  2.2683039668405902e-02  6.1160227853827691e-04  2.3284420858581335e-02  1.7448801656672224e-04  1.2998383315300059e-02  3.8008622585255399e-02  9.9267935045285142e-04  4.5341206172603998e-05  1.9524447498309988e-04  4.0799043739578840e-05  1.6494464149556154e-04  3.2189385658970326e-04  5.1833734427573813e-04  8.2853075532177091e-04  9.0071073915115997e-04  1.0320139140420523e-02  3.8814183053591585e-02  4.0628354841763353e-04  2.1298943626458424e-04  3.3669461610121174e-02  3.7901159620010783e-02  2.9468568995962610e-04  3.0972362110645682e-04  4.5892645362347804e-04  3.0175800744188940e-04  2.8626465736410703e-02  2.4188182041783881e-02  3.3063613566122654e-02  3.2020656212424024e-02  4.3967055604046790e-02  2.7689004321304344e-02  2.5347210174741164e-02  3.9729411334446040e-02  3.2853691705632980e-02  3.1808279136918617e-02  1.6290921413189170e-02  3.5167736473249354e-02  2.3826439889014828e-02  2.7846452019408850e-02  5.3661505294596941e-03  3.4449476097879531e-02  2.5595981435460519e-03  3.0565777828384568e-02  9.1203100368978021e-03  3.9236473677777786e-02  2.5526932823493486e-04  3.0682110319619330e-02  4.4444143654370057e-02  4.2014133615436905e-02  1.0165616343897135e-02  7.4748496611885332e-03  1.6800382975561780e-04  2.1209516566154848e-04  4.8810572852025481e-02  3.4203989802257133e-02  3.5140998803350962e-02  4.1473118545564682e-04  4.4175453631415403e-02  3.8787982441670997e-02  3.2388546578790936e-02  2.6829526625642825e-04  2.3890215304509787e-04  4.2120249799356844e-04  1.7007582828980144e-04  4.0775189455910228e-04  8.3649974587712654e-05  3.1148016162318153e-02  3.4260026775767824e-02  2.9766032286560922e-02  4.1202079621503356e-05  2.8651055198036584e-04  4.9187840301028471e-04  4.1891404299504644e-05  1.3624501664360103e-04  1.2801491358775807e-04  4.4234645204541720e-02  1.2087501687614516e-03  1.2377044041573265e-04  2.7217708247539020e-04  2.5175738445556512e-04  1.9098172914768169e-04  3.9794202518733945e-02  4.0154614233002463e-02  3.9479788029897683e-02  2.6475757856209717e-02  2.3111008405621938e-02  3.9324041434740428e-02  5.8482107194467127e-04  9.7563234084925964e-03  7.0700372686084191e-04  2.9893306291336543e-02  2.4397621789788916e-02  9.0111111103544309e-03  3.8872994115448201e-02  1.4881389929921666e-02  7.3362961260454431e-03  3.6768101774820344e-02  3.1727389882925040e-02  2.5392391524016212e-04  2.0643417333423886e-04  3.9572710706834081e-02  1.4706965690648298e-03  4.5756378950164930e-04  3.8997233684575000e-02  4.1965563202191358e-02  3.9594598120155068e-02  3.3277162558633729e-02  9.3471224911912784e-05  3.9130332734366072e-02  3.0103992355114576e-02  2.2899596637086544e-02  1.862096247