<?xml version="1.0"?>
<VTKFile type="UnstructuredGrid"  version="0.1"  >
<UnstructuredGrid>
<Piece  NumberOfPoints="1515" NumberOfCells="2858">
<Points>
<DataArray  type="Float64"  NumberOfComponents="3"  format="ascii">-0.5 -0.0001 0  -0.5 -0.5 0  0.5 -0.5 0  0.5 0.5 0  -0.5 0.5 0  -0.5 0.0001 0  0 0.0001 0  0 -0.0001 0  0 -0.5 0  0 0.5 0  0.5 0 0  -0.25 0.0001 0  -0.25 0.5 0  -0.25 -0.0001 0  0.25 0.5 0  0.25 -0.5 0  0.2500374937493749 0.1875187468746875 0  0.5 -0.25 0  0.25002499 -0.125 0  -0.125 -0.25005 0  -0.125 0.25005 0  0.5 0.25 0  -0.25 -0.5 0  -0.5 -0.25005 0  -0.5 0.25005 0  0.125 -0.3124916691673332 0  0.125 0.3437443727884549 0  0.3187498332767468 -0.3187498332767468 0  -0.3125 -0.3125124974994999 0  -0.3125 0.1875875025005001 0  0.04436566007004419 0.1785185187387698 0  0.3437706224620182 0.3437706224620182 0  -0.359407810625422 0.3594296915637348 0  -0.359407810625422 -0.1406703084362652 0  0.08209948494863104 -0.1484533219292508 0  0.3281296842191969 0.03125624875007487 0  0.1612337437527647 0.0454945319044936 0  0.5 -0.125 0  0.3736573308633327 -0.1902100573489204 0  -0.05632383965282133 -0.1281636979131719 0  -0.1875249975 -0.37501249874975 0  -0.02161822989173764 0.354580025951059 0  -0.2160757009003203 -0.1393657085918785 0  -0.01783801249259284 -0.3526895391541273 0  -0.2160757009003203 0.3607342914081215 0  -0.125 0.0001 0  -0.125 -0.0001 0  -0.1875249975 0.1250875012502501 0  0.5 0.125 0  -0.375 0.0001 0  -0.375 -0.0001 0  -0.5 0.125075 0  -0.375 -0.5 0  -0.5 -0.375025 0  0.3828324180271084 0.1875 0  -0.125 0.5 0  0.5 -0.375 0  0.375 -0.5 0  -0.125 -0.5 0  -0.375 0.5 0  0.125 0.5 0  0.125 -0.5 0  0.5 0.375 0  0.375 0.5 0  -0.5 -0.125075 0  -0.5 0.375025 0  -0.06200365993838185 0.1102431244359298 0  0.3921286730834987 -0.07100003899567721 0  -0.001178265146973292 -0.2342725669761844 0  0.219639755882476 -0.3848202826230195 0  0.1764909845376315 -0.2113963654501196 0  0.2343901841136658 0.3031458088961128 0  0.1561195030924493 -0.06553680147678266 0  0.1485501800845649 0.1522005597879607 0  0.07430925316253632 -0.4062458345836666 0  0.1875 0.4218721863942274 0  0.0625 0.4218721863942275 0  0.2776974776570886 -0.2252166395728846 0  -0.2310132101974821 0.2556304703469177 0  -0.2310132101974821 -0.2444695296530824 0  -0.3906265628125469 -0.3906296862497968 0  -0.3906265628125469 0.1094703137502032 0  -0.2812687506255001 0.09383750062512503 0  -0.2812687506255002 -0.406262499374875 0  -0.4101472686723712 0.2071199254696213 0  -0.4101472686723712 -0.2929800745303787 0  0.2470275540227946 -0.02585328932041452 0  0.4068247800249947 0.09140209453477602 0  -0.1176406316218027 0.3957739114529177 0  0.4080574838155757 -0.2809016730332933 0  0.3125 -0.4219344228213859 0  0.4088486496673779 -0.4088486496673779 0  0.1167033063099591 0.2455046542815969 0  -0.02381261413756171 0.2533622281544139 0  0.02735543470987723 0.08802303626707711 0  0.3144655814479235 0.2551097933485553 0  0.2801337679615206 0.4118308473117793 0  0.4101587089138863 0.2773478512831281 0  -0.09689860681079282 -0.4078094624324944 0  0.213976519574722 -0.2941495474331945 0  -0.318965898965983 0.2781458178971435 0  -0.3125 0.4357826538464097 0  -0.318965898965983 -0.2219541821028565 0  -0.3125 -0.06431734615359029 0  -0.4357704230694522 0.3125375 0  -0.4357704230694522 -0.1875625 0  0.4114732283419867 0.4114732283419867 0  -0.4234646583494089 0.4234743507195528 0  -0.4375 -0.0001 0  -0.4375 0.0001 0  0.3164258563077259 0.1230517971377134 0  0.04931026741366369 0.300666438050672 0  0.2304865209107167 0.1009680687096636 0  0.02061587644269779 -0.08558486663800556 0  0.09390691211100699 -0.2329943594667239 0  0.08896107880644889 -0.006809950500825342 0  -0.1875 0.5 0  -0.1392552316473008 -0.09019077220175532 0  0.4170297537744737 0.008612617817243748 0  -0.4243694331702185 -0.08478222235936261 0  -0.1416933693607303 -0.1709733993077484 0  -0.09511425322415427 -0.3261090638251909 0  -0.04508670308176045 0.4323857419859515 0  -0.4375 -0.5 0  -0.1187189609291948 0.1687838380963837 0  0.3117722643778845 -0.07351457101062323 0  0.1513445599038777 -0.4251753449096755 0  0.04472177709904164 -0.3011105058468416 0  0.001740722226491711 -0.4250539693950984 0  -0.03075788851996441 0.178560406845558 0  0.1766313586052732 -0.1370243862559475 0  -0.0761550533906552 0.3051296889632589 0  -0.1485469487091727 0.3268133048125818 0  0.1930083860569673 0.2386735170085497 0  -0.0625 -0.0001 0  -0.0625 0.0001 0  -0.2878141094770303 -0.1320687430427478 0  -0.2875995151119595 0.3444544772933048 0  -0.24076159142329 -0.07161431170272106 0  -0.24076159142329 0.428485688297279 0  0.4263700347703773 -0.1373417231816959 0  -0.1856875708107399 0.19821478019016 0  0.09322297310683496 0.06338537237428626 0  -0.07466041728962823 -0.1981228067401687 0  0.009513123991135172 -0.1613319531958586 0  0.3092144166352111 -0.1625850961304104 0  0.3437404121717113 -0.2534277690952264 0  0.4379744025071972 -0.2176839612869874 0  -0.1297061011176702 0.07587858854060507 0  -0.1875 0.0001 0  -0.1875 -0.0001 0  -0.1875 -0.5 0  -0.1633110600051376 -0.3090045011162743 0  -0.21877499875025 0.06259999875025002 0  -0.21875 -0.4375124968750625 0  -0.25001874937525 -0.3437749968748749 0  -0.2500187493752501 0.1563250031251251 0  -0.5 -0.4375125 0  -0.5 0.06258749999999999 0  0.08904799960830578 -0.08015900599685086 0  0.4108334826406196 0.3444103681633853 0  -0.0625 -0.5 0  0.4414087098136942 0.2187640586098291 0  0.4382361660678968 0.150288432919798 0  -0.3125 0.0001 0  -0.3125 -0.0001 0  -0.3416336343815852 0.06187820768002609 0  -0.3125 -0.5 0  -0.3416336343815852 -0.4382217923199739 0  0.3168016282179152 0.1891009224226147 0  0.4368875345166075 -0.3446993355472595 0  -0.05975660640830217 -0.2683150418715617 0  0.3458703977041003 0.4362216268226822 0  0.5 0.0625 0  0.5 0.3125 0  0.5 -0.0625 0  0.5 -0.4375 0  0.4375 -0.5 0  -0.04197328552084911 -0.06329083152961786 0  0.2257906778195176 0.03586621568734723 0  0.2286857476565217 0.36951555023185 0  0.3548787707540964 -0.3727197121900284 0  -0.1790795964032311 0.4125871598709088 0  -0.0278086253378118 0.05696913583040467 0  -0.2640893654172825 -0.190631969293494 0  -0.1533594275423699 -0.440977335357388 0  0.5 0.4375 0  0.4375 0.5 0  0.1704903431553385 0.2986434949108457 0  0.08721475273820462 0.1287687476127682 0  0.1875 -0.5 0  -0.0625 0.5 0  -0.4375 0.5 0  -0.3125 0.5 0  0.0625 0.5 0  0.125 0.4359369935185367 0  0.3125 -0.5 0  0.1875 0.5 0  0.0625 -0.5 0  0.5 -0.3125 0  0.5 -0.1875 0  0.5 0.1875 0  0.3125 0.5 0  -0.5 -0.1875625 0  -0.5 -0.3125375 0  -0.5 0.1875625 0  -0.5 0.3125375 0  -0.5 0.4375125 0  -0.5 -0.06258749999999999 0  0.3624254104606854 -0.1274336378120225 0  0.1857642697873453 -0.01126882530927889 0  0.03669184495608396 0.2400031982312926 0  0.04068015303098439 0.3629261100764373 0  -0.3851162339112683 0.269026866774594 0  -0.3758332300807991 -0.1995452526923809 0  -0.446144648587372 -0.34378125 0  -0.446144648587372 0.15631875 0  0.3504998016039519 -0.02589861883840036 0  0.2836777321248879 0.07223256202683162 0  0.21875 -0.4466460035652602 0  0.1774501368185094 -0.3419431906700547 0  0.2592287652038449 -0.3368353496836486 0  -0.4486577479325732 0.09383124999999998 0  -0.40625 0.05134972627205531 0  -0.4486577479325732 -0.40626875 0  -0.40625 -0.4487502737279447 0  -0.07907884158578801 0.2127234227389962 0  0.2826672956396865 0.340725212476292 0  0.2552094419670018 0.2470909165729528 0  0.1235030570827048 -0.3722630563328095 0  -0.1765523267242401 -0.2196325740312749 0  -0.3653881707177284 -0.256399556620603 0  -0.3667881364584723 -0.08355066867835562 0  0.1448027058369495 -0.2589171712236736 0  0.2204190758351349 -0.1742931558527921 0  0.125595190811689 -0.1854735536931699 0  0.2751135960266025 -0.2821263988783404 0  0.04714559827497029 0.03095590907283807 0  -0.3694518448121097 0.4428768192088114 0  -0.4163493718954405 0.3665341424253254 0  0.2065677312659464 -0.0897482605048449 0  0.04596501084766122 -0.2039288085874983 0  -0.3678348759016452 -0.3352975447880205 0  -0.3331464162279717 -0.3812640910313448 0  -0.3678348759016452 0.1648024552119795 0  -0.3331464162279716 0.1188359089686553 0  0.006928352547084439 0.4089314103168539 0  -0.008754979675293741 -0.28865535545956 0  0.454824000777391 -0.03125 0  0.4453084397952883 -0.08555947234219879 0  0.0400389030608287 -0.3591593324500765 0  -0.3565047668221014 0.2214443888382642 0  -0.1767790649240408 0.276160039146296 0  -0.4407450517553578 0.2555055370068006 0  -0.4424041217249974 -0.2449977221857678 0  -0.0101841459589043 0.1278467808234489 0  0.1946666826231925 0.1831558471035277 0  0.1023041143695485 0.1885027832887665 0  0.1383943178482503 0.09688656085697314 0  0.1738321521953076 0.3687430643819201 0  0.09375 -0.4563154147117792 0  -0.2831024225358643 0.2351964925231401 0  -0.2621637468582121 -0.2899792135739121 0  -0.2423367266168128 0.3108531660207947 0  0.3858515397252176 -0.3293494555229365 0  -0.09921103529049136 0.4494480844437962 0  -0.1387217209722605 -0.3554699308920083 0  -0.06600083182100508 0.3836351847814501 0  0.1309954671830858 -0.1114321286398948 0  -0.09375 -0.04518048647049126 0  0.04208778762923838 -0.03517827620526504 0  -0.08165643227347709 0.05080163226699017 0  0.2987692351119484 -0.01319048554596328 0  -0.4136288823076366 -0.1379960981994732 0  -0.1856470434007142 -0.05707095126749213 0  -0.15625 0.4588983004055426 0  0.301492156088943 -0.3696020442065089 0  0.2261014656445051 -0.2255765688706129 0  -0.0254711816102797 0.3040308714413081 0  -0.2359814035109398 0.2051098885755096 0  -0.2142660728025848 -0.3074346058732286 0  -0.0444842016587006 -0.3987296650352232 0  -0.06299926340697812 -0.4476735265309565 0  0.2370119789310965 0.4463270361850639 0  0.1025408210352734 0.3898406831534957 0  0.02523186154102609 0.456121755814222 0  0.2703582881149408 -0.4522472093634566 0  0.34375 -0.460967211410693 0  0.1519529867048281 0.2096636028655708 0  -0.1028373102819492 0.3477334553616848 0  0.2543545123482477 -0.07525044338081299 0  0.4586232703312498 
[...]
<PointData  Scalars="f_184501"> 
<DataArray  type="Float64"  Name="f_184501"  format="ascii">1.0121444581658816e-06  1.6862890381601203e-04  1.6109695283539030e-01  7.4558149734224033e-02  1.3643691523901286e-03  2.4654170131771826e-07  9.9739650496055632e-01  9.8589911476670189e-01  9.4323676338233641e-03  1.2537448073289154e-02  3.0322568715000338e-02  7.9640328671979851e-04  3.1668022862410647e-04  8.3789608466876145e-04  4.6955153672455785e-02  3.0965971437485539e-02  6.7093110068939768e-02  5.1195926911002484e-02  7.0711044483788871e-02  1.4129452481134684e-03  1.4288080280476763e-03  5.4509935722017309e-02  9.9744209810429603e-04  4.5158264882206429e-04  5.3127619893202907e-04  2.9937291657001121e-02  3.4125704437785127e-02  5.8162767962571783e-02  1.6540185197539867e-04  4.9793721126777080e-04  2.6844357542945972e-02  5.8506586105447407e-02  2.7461508949030251e-04  3.7524794987160964e-04  4.3372479444469120e-02  4.7806085098467233e-02  1.0784488166717167e-01  3.7468137772431603e-02  5.7908966405168669e-02  2.5910279289681408e-03  1.0731819127503151e-03  1.0208600527752913e-02  3.1037269871582722e-04  8.5370159456682644e-03  4.9919914157768976e-04  2.1747966166586366e-03  2.4679915454082230e-03  3.4194789111650681e-04  3.7195613700866499e-02  8.4341440616064642e-05  8.8370555762880740e-05  7.3002625144756873e-05  2.6569499306558069e-04  6.0164472885781116e-04  5.4659101462256693e-02  3.2327011967647201e-03  6.5377676416528224e-02  5.1481535674941778e-02  3.5503443784441896e-03  2.2112560589428125e-04  2.9522066671145486e-02  1.8644938952609543e-02  6.9614026887716965e-02  5.9617386131208129e-02  7.6204733419902180e-05  1.1830983177014082e-03  1.5778465289145714e-03  4.6476172568801412e-02  1.1304402602554451e-02  3.7057511515960137e-02  5.5786926529219960e-02  5.4440335785856678e-02  9.6026274799131284e-02  7.4777778657922303e-02  1.6792284315726984e-02  4.0274309279053747e-02  2.1048905359930377e-02  6.2848701005113305e-02  3.0060392954908471e-04  2.7647717702474536e-04  2.2808207533892911e-04  2.8358883075216290e-04  5.1039761789033937e-04  3.3166570431070647e-04  4.0550657621180448e-04  2.6786278600155665e-04  6.0824366703504044e-02  4.4407648463337432e-02  3.1471034517134874e-03  6.0083391005130861e-02  4.6706967313343124e-02  6.8411265283256639e-02  4.2161296684592980e-02  9.0007361797048765e-03  2.6290119181693598e-02  6.0699145065464942e-02  5.1545088552587617e-02  5.8409777031527527e-02  3.7790189015117176e-03  4.7316485297512312e-02  3.4617876022153979e-04  8.0439266727313068e-05  3.1460485408582345e-04  3.6740001813939319e-04  5.2503358304321543e-04  2.5767421310546188e-04  6.2882497402819842e-02  5.5026000088365405e-04  1.1906828252861079e-05  9.7939574097265338e-06  5.6995759165482614e-02  2.1541661689145855e-02  7.0734478099836032e-02  1.8817855508399740e-02  3.1951238050360729e-02  4.1219832881383101e-01  1.2010335419129798e-03  3.6882956674479101e-04  4.0054205966453808e-02  1.2173210223844494e-04  4.0717259368072277e-04  3.3151466105210865e-03  8.2234445292838094e-03  1.8148607794296503e-04  7.1420936241215719e-04  5.6316025632917426e-02  2.3938838654283298e-02  1.6696195925190612e-02  9.6151672852099277e-03  6.5868561665919940e-03  7.3669726985030756e-02  4.6581422445372929e-03  1.4887423616530191e-03  5.8836850585399891e-02  6.6586565491378669e-03  8.1783738918224883e-03  4.4147740530997716e-04  1.8715850433811355e-04  5.3214184365775301e-04  3.6719786622119974e-04  4.7463785285452281e-02  3.0046000926130343e-04  1.9863810322479450e-01  2.9495096306468914e-03  1.4247577054307825e-02  6.3380645664310356e-02  6.1465886133150190e-02  5.2763284692038420e-02  6.0491746403461917e-04  1.4691760238166813e-03  1.5959421537009044e-03  2.0106081923930157e-03  1.1007494057996593e-03  6.4021370348220125e-04  1.0239821611739844e-03  3.3426398295086736e-04  4.4598028435900489e-04  4.1446887921321284e-04  9.6655985233877794e-06  7.4017339800605736e-02  6.1193844892502673e-02  6.0961328021305172e-03  5.2271262321408170e-02  4.5977776384707396e-02  3.1749471625337603e-04  3.3467023776807765e-04  2.8899220077072504e-04  4.8637440791404545e-04  2.5368160564752547e-04  6.1166353142874115e-02  6.4473407744439742e-02  4.9418593072455275e-03  5.7119352686195342e-02  3.1889258729214269e-02  6.3134415688345463e-02  3.2411384149202881e-02  9.0087386738481004e-02  7.9258371205246439e-02  3.2407912471476156e-03  6.3564365026842498e-02  4.8060330234125460e-02  5.8773484187404919e-02  1.2350506448712039e-03  3.7310695836368438e-03  3.3289224553742616e-04  2.3084984535118105e-03  7.3484341181763474e-02  6.7131357716706308e-02  4.6302727391651866e-02  6.0462107499211729e-02  2.4636401680544779e-02  6.8811796969164944e-03  7.1213597192857573e-04  5.9511404383998184e-05  2.0628522877315231e-02  3.0720714612301421e-02  3.8850767739293669e-02  3.9132842668439617e-02  1.3699018495190477e-02  5.8271048097746983e-02  4.4538522347645611e-02  4.5433963680533644e-02  5.3291876560691696e-02  2.4195337984027904e-04  6.0047245013682441e-04  2.4654857484319228e-04  8.8774719834219915e-04  1.4088045926640498e-03  1.1090714085860093e-05  5.4721012930303535e-02  8.4984548963829828e-02  2.0887753879978370e-02  1.8753530323335457e-02  4.2787385828090625e-04  3.4049833434560367e-04  3.6581570666794543e-04  2.1702901614219583e-04  4.7068780344757262e-02  5.5374641859314518e-02  3.0304106191122782e-02  3.5463184799653345e-02  4.8610003269819492e-02  9.2305778490882155e-05  9.4474488935918733e-05  3.6731737201892010e-04  2.5936614422285016e-04  2.7629124825278299e-03  5.5234091339812913e-02  6.1471570062129659e-02  2.4670588124983510e-02  4.0127812094718161e-04  2.6391309573025484e-04  2.6786925579583596e-04  4.0337110054449919e-02  6.7847197607319429e-02  4.9592952924418669e-02  5.7203007199460573e-02  8.4604554425825651e-01  2.1416007463627326e-04  4.8058335674670225e-04  7.9309040433565167e-02  2.2520826506796352e-02  1.8591582824463104e-04  1.6721188109181001e-04  4.4607207925003101e-04  4.6182189937502135e-04  1.3482165891772743e-02  9.7393696872110930e-03  3.5997955665643899e-02  4.0487873985098261e-02  1.4189681149546059e-02  4.7819051445618422e-04  6.4379484729029386e-04  4.4626894503240383e-04  3.1295996711216089e-04  8.2103661577857395e-03  6.9287125974542133e-02  4.8262606560841970e-02  1.0194792740864843e-01  4.0611746929998305e-02  1.6719191034463714e-02  3.8723090210219960e-04  2.2906186844335336e-04  2.9755391677148386e-04  6.2661158600636230e-02  4.4008868292567766e-03  1.9602054737186511e-03  6.0954757369979439e-03  7.5781612179348479e-02  1.4180871196750613e-03  9.0134039500882876e-02  1.3107670105174387e-03  5.1416319939838875e-02  2.4209295695592524e-04  7.6299539028737255e-04  2.0206344518261961e-03  5.1076327742005809e-02  6.0038074808402328e-02  9.3894310530290917e-03  3.4011690697753546e-04  4.5653387757834752e-04  6.4095865941485863e-03  5.6913963229590367e-03  4.5752981995275804e-02  2.8153784908361800e-02  1.5813094429690065e-02  3.6284438959445282e-02  4.7374601045880656e-02  5.8005151612039847e-02  3.5051154116324018e-03  6.6278881424655461e-02  3.8496225120797103e-02  4.9079164792078765e-02  5.0374144032578963e-02  3.4891779024213518e-02  6.3063406808358546e-04  5.4089550619062620e-04  5.9299106213082074e-04  4.9204398019128952e-04  3.7228808920653493e-02  5.8575074805859322e-02  5.9449173388622184e-02  7.0524344641553459e-05  7.4936508646655534e-02  6.5514780744322335e-02  5.7023648576393290e-02  1.9014389972512612e-02  6.2443209044863848e-02  1.2909501891743958e-02  4.3642542413767332e-02  5.8304260134485912e-02  2.1039371677190975e-02  1.6890935136199484e-01  2.3343749094946432e-05  7.7864365225899582e-02  5.8584975729597387e-02  9.1470011967969084e-02  2.1771256619557459e-04  6.3105047522378749e-02  6.8076296198781014e-02  6.5428744474351735e-02  5.9218712048926779e-02  5.3267307553912248e-04  1.0991975765385451e-03  1.1752349414724601e-03  4.0903499481739693e-04  6.2923534143524806e-02  1.3748367950183784e-04  3.0544957919799377e-04  2.1273119105792921e-05  5.9935008897181790e-03  3.3220772967421932e-04  5.2885219243872780e-02  5.0049785710020551e-04  5.8670179924765690e-02  6.1423440924737586e-04  5.5808224777161013e-02  6.3828644076150812e-02  3.7481378054010127e-03  2.6426072424546064e-04  8.6614362002399886e-02  2.8593040741112817e-02  3.9661980503300680e-04  3.1234022288428035e-04  7.4303242995309065e-03  1.4223696286270642e-02  2.3363861787041294e-04  5.7836757370979938e-04  1.1334601155077635e-03  1.8759364396133795e-04  5.1845664645082325e-04  1.2483111973073506e-03  4.9550082741893126e-02  2.2246317079815828e-04  2.4851934334573828e-04  3.7939175568704911e-03  9.3887626215227184e-04  5.5012826337969228e-04  8.6183776202257455e-04  1.6360749706330501e-04  7.6626982329543452e-04  1.2179362929026716e-04  4.8876688212867248e-04  2.1182803844458994e-04  4.0152267499891887e-04  3.0151599781106563e-04  6.7413957804133520e-02  3.4678215868700853e-02  2.4172874001322352e-02  4.7549189999050778e-02  3.9679043568880530e-02  1.2985642593585925e-01  5.9886689404052180e-02  1.4905751579094484e-02  4.6978979934384685e-02  5.6152608911756330e-02  5.6608113733271070e-02  4.3233303019092931e-04  7.0910134423442392e-02  3.0530433959477615e-02  4.4411360827961164e-03  2.2684341982959783e-03  1.0769247964964276e-03  9.2464135137420266e-04  4.1517288188930239e-02  6.0399546769728156e-03  3.7542717712968070e-02  5.3547882827624495e-02  4.3255421615256225e-04  3.0587858856447103e-02  1.5046014494706973e-02  2.9209308271170478e-02  2.5917030317765981e-02  6.1387617206149922e-02  2.2932165807205453e-03  8.5498464781342306e-04  2.8722827818622226e-04  5.6532958113440779e-05  2.9302511454027694e-02  5.8775588127176384e-02  6.3075925799783925e-02  6.2759724129828942e-02  4.1668522004817424e-02  3.1386366574129812e-02  2.4898696706966400e-02  5.2496136773868163e-02  3.5202288420198104e-02  6.5873148630326839e-02  1.9448084241224762e-04  6.7753653293635559e-04  2.4841617053244721e-04  6.1562752608533824e-03  4.0513216381415831e-04  4.2882822206875705e-02  7.6205256266535350e-03  8.3684948460411631e-03  3.5081425396968180e-02  2.6914581813331328e-03  4.4796521641207301e-02  2.8700142121086133e-04  6.5960088409640892e-04  3.4279107363840224e-04  9.4066212396505342e-03  7.7058565403235815e-02  3.9940868611273973e-02  1.2072873881594479e-02  8.2561054680318645e-04  9.9514961821671634e-05  2.9323149354514705e-04  5.0540821708281856e-02  1.5018375438755613e-03  1.2639112551487591e-01  2.0041741462205852e-02  2.0539939312792216e-02  6.1847324795299540e-03  2.5121026399702073e-04  3.5745543458069637e-04  7.1786648746127904e-02  4.5281232236607689e-04  3.6219009170995688e-04  4.0910102518674024e-02  1.5087515739039325e-04  3.1918037713775149e-04  2.2875005847518000e-04  3.5401079955074688e-04  4.1085316556353931e-04  4.7798607797189398e-02  9.6071702280568841e-03  6.3203378343851355e-02  7.4500657843189350e-02  3.1608569604809939e-04  6.4984838583079990e-02  5.6925685906942532e-02  5.0741691117097171e-02  4.4563823379980264e-04  4.6619835783779371e-04  3.7115635999270062e-04  5.2077552854456713e-02  1.4687642243234421e-02  5.5451194843728797e-02  5.7023503080750854e-02  1.0520232118811104e-02  3.1883840431511307e-04  2.1173570952231496e-01  1.3079759050687286e-03  4.5415535878467403e-02  5.3843449633916768e-02  6.8796183428068369e-02  7.0909200113370200e-04  3.4043086308429638e-03  1.4076737779755702e-02  6.5808928551512359e-03  1.2757855753964506e-04  5.8591554662771224e-02  4.2371400692411688e-04  4.6080436488199088e-02  4.1056890495427663e-02  1.1265194738814487e-01  6.1358518786267684e-02  8.3617263606442463e-02  7.2924997272623499e-02  6.2265671295958218e-02  1.3629276405040991e-03  2.9154806992520835e-02  5.8794469134259467e-02  1.1913536821993434e-02  2.7247904410130238e-03  4.0142844115717870e-02  2.5905155438826918e-02  6.3339776904056530e-03  5.0113984235820039e-03  1.3671060419805491e-02  2.4465432798397057e-04  2.5923452748834690e-04  6.0306507845695551e-02  8.4265392799005145e-03  8.2605819380496975e-04  2.0788139695413963e-04  3.1199859549844484e-04  1.3244402368037408e-03  5.1351095501750023e-02  2.7965198209621875e-03  1.2657869795087102e-02  5.9607924075566497e-02  2.9192411701570616e-02  3.0504456865549360e-04  9.3844512957462337e-02  4.6688012523109397e-04  3.2565265135519385e-04  4.7546801234804120e-02  5.0948719062064017e-02  5.6354677935297949e-02  2.4473465207300570e-04  3.5470396961990178e-04  1.5013765113825470e-04  5.0417686135551659e-04  5.7497245121363371e-04  2.7987730765499468e-04  7.7698733665447026e-05  4.5956423920586097e-02  5.2910103908326997e-02  5.1976875002490874e-02  6.0358868190134085e-02  1.0793772803015363e-02  4.1470977906869357e-02  6.0089333366645514e-02  2.1998822930351684e-03  6.3951520818436745e-03  6.2076113227486873e-01  1.5287180900386570e-03  1.9045359540572505e-03  1.3891786826005059e-04  2.2313997925590593e-04  2.6931642299942744e-04  2.3279218342876627e-04  4.1242935949689134e-02  1.4092692220238950e-04  5.4587325862000144e-02  5.9329400449467135e-02  5.9880642970950429e-02  6.5962257862220541e-02  6.4592388085087687e-02  6.0483275681279536e-02  6.2034957424164698e-02  6.7155660512844842e-02  6.0492064644238189e-02  5.6880109356949031e-02  5.3161041329646663e-02  6.0763658932567993e-02  3.4983909981369903e-02  4.2329733363482305e-04  1.1279689513942908e-03  1.1537386977481549e-03  9.6904210243959070e-04  7.1232159518459723e-02  2.0090150474363664e-04  3.1874967630861730e-04  5.5339513445478025e-04  7.7634851193413620e-04  5.1239788935138284e-04  5.9324097816636928e-04  1.7791236550402259e-03  1.4039313698804682e-03  2.6866427109090963e-03  1.0840964721481122e-03  6.4721241026976545e-02  5.9874566250383784e-04  7.9841203915918570e-03  1.1651040801511518e-01  2.5981867874088258e-03  2.3239489277884752e-02  6.4777982085795335e-04  4.9010597729663014e-02  3.5325689236050556e-04  1.6772908758115344e-04  1.8313088005239469e-04  5.0831418230233516e-02  1.1531605225556017e-03  4.8144162163246101e-02  9.3109872587387454e-02  5.7363184309429507e-02  7.2242906275214215e-03  5.8443647445697272e-02  2.7680593844040669e-04  3.9341275758420044e-04  2.6299874929504277e-03  3.0900824953328174e-03  6.0271241395016745e-02  2.9320742462574721e-03  6.1126951145321434e-02  2.2601386886538961e-02  3.4229951380981088e-02  6.9309849476681382e-02  6.1449598884021982e-02  8.7635018832531039e-02  2.9755719943064694e-03  4.8856283635860434e-04  4.6509735710185545e-04  4.4671220829336285e-04  4.5740043788571938e-02  4.0557960964942817e-02  6.0647510313935241e-02  2.1463578140839261e-02  4.6292263430124179e-02  4.1528869399623646e-03  5.2591082821088361e-02  4.3286487592002938e-02  4.0989259179392071e-02  4.7229291752594266e-03  7.2713554640342747e-03  4.3930913826992414e-02  5.0052919108610643e-02  5.4106687024053857e-02  5.6118858362023773e-02  7.8747781466176701e-03  9.3063093325724300e-01  6.8654546680506443e-04  5.4111037267818435e-04  5.5537945355595771e-04  2.6626057327631025e-03  3.9596762457938842e-04  5.8268641116328977e-02  1.9513013179986115e-02  2.3445223508091319e-04  4.4252167813994754e-04  4.0106695488889170e-04  8.9050995447378045e-02  3.8934632032762373e-02  7.9908914559766328e-02  5.5045649489706154e-04  4.0887207793109762e-04  3.8622008819135195e-04  4.1114235779151498e-04  2.9761775710253251e-03  7.2738736704075171e-02  6.4305915802810781e-02  7.9251409416922117e-02  2.9961279868222717e-04  6.4434904082234498e-02  3.1287315197286818e-04  5.3518616373339420e-02  5.9704478637388321e-02  2.4988552943078494e-02  8.8620839341633899e-04  7.4961319266892437e-02  3.3318695194787334e-02  6.4993635724268784e-04  2.9751194681786816e-06  3.0521133936111332e-06  2.2771099658037896e-06  4.2261601989711944e-04  5.6424520598963345e-04  1.6646612705316694e-04  2.7625417970289544e-04  2.2609945878688284e-06  8.7261080653493472e-03  1.1178437016115451e-01  1.3851817478321055e-01  4.3293664711420668e-02  7.4283006136013940e-04  1.7890678122377848e-02  3.5623261239028307e-02  2.6289365403687839e-02  2.9040130591184956e-02  5.2427269159879455e-02  5.1033522405693317e-02  6.2548592684592244e-02  5.9629187625995284e-02  1.4351246107541458e-02  5.5775867447546514e-02  5.1239107548416492e-02  3.5587797541124136e-02  7.0306012025790360e-04  7.2891781719064592e-04  1.9133308521502382e-03  2.0939302950742020e-03  1.8523725497147576e-03  1.3583419447826201e-03  6.3873555488813308e-02  1.6058365817318966e-03  3.5989491976365899e-04  3.9824974781851316e-04  2.7163166422287114e-04  6.6356878311219142e-02  3.6645651882351196e-04  3.1007394941215627e-04  1.9277628121344890e-04  1.4006432988611504e-02  2.0328729314038552e-02  3.3839210140920409e-02  1.2420214758224622e-04  9.1815787707246951e-02  1.6324633088435136e-04  1.2306595049516608e-03  3.6548621998387355e-02  1.2835212856815111e-04  4.2110709780078585e-04  5.6626343587322645e-02  4.8549488747060623e-02  2.5018901332587721e-02  3.4696261215295905e-02  3.2852283841064216e-04  1.1640621673370029e-04  6.6605762332292345e-02  6.3197998846201558e-02  5.8895530570826395e-02  5.4624757584136395e-02  6.1264326222147038e-02  7.2632668829739788e-02  3.2585011067669094e-05  3.4035658192615172e-05  3.0579659194682491e-02  3.4164823356422215e-02  4.4758001078347966e-02  1.6447432114367177e-02  1.9609591622823984e-03  4.7973478044216868e-03  1.6129971661080052e-02  3.0814562919208682e-02  2.1883953285511298e-04  2.7611299978972308e-02  4.4341721322038827e-04  1.1492386955470578e-02  5.0201164175564680e-02  1.4048905818276891e-03  3.0416620003192519e-05  1.4732197873244289e-04  3.0242268641682084e-05  1.3890613791943466e-04  5.3408409258086083e-04  6.2876054507273729e-04  1.0381105421056911e-03  1.2308734043648597e-03  5.7101583615069059e-03  5.3503996606689308e-02  5.0025061869573716e-04  2.1168658917922504e-04  4.2908853307983427e-02  5.2984816595892867e-02  3.5129621443453287e-04  4.1600107644844885e-04  1.9720365404739317e-04  1.7413438448535620e-04  2.1583777335134852e-02  1.3946795569194185e-02  2.2001648975240255e-02  5.1105422593151956e-02  6.9015421799834234e-02  2.9804751209757889e-02  3.0993961094531404e-02  5.4742657601181667e-02  5.5252737889364800e-02  5.2671079995215371e-02  1.1013717171404100e-02  5.9569020264607017e-02  1.9884015639211661e-02  4.2154992415579857e-02  3.0049255087118707e-03  5.5951712276421303e-02  8.1971663823821462e-04  4.7151398949224078e-02  6.8086236545947471e-03  5.6593810662143453e-02  3.6453540991795844e-04  4.6308617116015402e-02  1.3293790232655259e-01  6.6507375260625112e-02  5.8861470033796893e-03  5.1761492795453961e-03  4.1811225210025294e-04  3.0165825933713023e-04  7.0573111549098455e-03  5.6766008432461837e-02  6.2553203888586761e-02  2.5833252154497426e-04  6.2979930791740815e-02  5.9845161489739118e-02  3.1836592188338168e-02  3.2181653040855215e-04  2.3561377031632903e-04  2.6456348106647208e-04  1.6501021384839596e-04  3.1120123527053742e-04  7.1157544624720536e-05  3.7045870275024824e-02  4.1210101406835654e-02  3.1762812001736390e-02  3.2045303765427013e-05  4.2983505417434046e-04  2.3469383485161404e-04  3.1451713878309867e-05  2.7165065542408281e-04  1.0409559966404195e-04  7.0300159654266683e-02  3.4347599272513028e-04  2.1809013018144911e-04  4.5812670737437441e-04  4.9604322472425564e-04  1.6226193005788558e-04  5.8055352679295125e-02  6.4026667908607532e-02  6.1255964941404187e-02  2.5949178172603993e-02  2.3647479440996776e-02  5.5866860292067187e-02  6.1283874987158430e-04  1.2251037603222795e-03  1.5466295457777053e-04  4.6398172642340002e-02  3.5662424076313572e-02  4.1959249531890556e-03  5.9764887306151870e-02  3.9597421251178705e-03  1.8989734523149374e-03  8.3645579651014421e-02  4.8367585301179100e-02  3.2122104251614621e-04  3.0976792625772012e-04  5.7135308487884180e-02  5.5426898961826387e-04  4.3007311653628724e-04  5.6090511232438078e-02  3.7841654170299985e-02  4.1375657632569618e-02  4.9816024540507299e-02  2.9132073143826843e-04  5.6224485050712300e-02  2.8420831667769653e-02  2.6597536846878933e-02  1.577840102