<?xml version="1.0"?>
<VTKFile type="UnstructuredGrid"  version="0.1"  >
<UnstructuredGrid>
<Piece  NumberOfPoints="1515" NumberOfCells="2858">
<Points>
<DataArray  type="Float64"  NumberOfComponents="3"  format="ascii">-0.5 -0.0001 0  -0.5 -0.5 0  0.5 -0.5 0  0.5 0.5 0  -0.5 0.5 0  -0.5 0.0001 0  0 0.0001 0  0 -0.0001 0  0 -0.5 0  0 0.5 0  0.5 0 0  -0.25 0.0001 0  -0.25 0.5 0  -0.25 -0.0001 0  0.25 0.5 0  0.25 -0.5 0  0.2500374937493749 0.1875187468746875 0  0.5 -0.25 0  0.25002499 -0.125 0  -0.125 -0.25005 0  -0.125 0.25005 0  0.5 0.25 0  -0.25 -0.5 0  -0.5 -0.25005 0  -0.5 0.25005 0  0.125 -0.3124916691673332 0  0.125 0.3437443727884549 0  0.3187498332767468 -0.3187498332767468 0  -0.3125 -0.3125124974994999 0  -0.3125 0.1875875025005001 0  0.04436566007004419 0.1785185187387698 0  0.3437706224620182 0.3437706224620182 0  -0.359407810625422 0.3594296915637348 0  -0.359407810625422 -0.1406703084362652 0  0.08209948494863104 -0.1484533219292508 0  0.3281296842191969 0.03125624875007487 0  0.1612337437527647 0.0454945319044936 0  0.5 -0.125 0  0.3736573308633327 -0.1902100573489204 0  -0.05632383965282133 -0.1281636979131719 0  -0.1875249975 -0.37501249874975 0  -0.02161822989173764 0.354580025951059 0  -0.2160757009003203 -0.1393657085918785 0  -0.01783801249259284 -0.3526895391541273 0  -0.2160757009003203 0.3607342914081215 0  -0.125 0.0001 0  -0.125 -0.0001 0  -0.1875249975 0.1250875012502501 0  0.5 0.125 0  -0.375 0.0001 0  -0.375 -0.0001 0  -0.5 0.125075 0  -0.375 -0.5 0  -0.5 -0.375025 0  0.3828324180271084 0.1875 0  -0.125 0.5 0  0.5 -0.375 0  0.375 -0.5 0  -0.125 -0.5 0  -0.375 0.5 0  0.125 0.5 0  0.125 -0.5 0  0.5 0.375 0  0.375 0.5 0  -0.5 -0.125075 0  -0.5 0.375025 0  -0.06200365993838185 0.1102431244359298 0  0.3921286730834987 -0.07100003899567721 0  -0.001178265146973292 -0.2342725669761844 0  0.219639755882476 -0.3848202826230195 0  0.1764909845376315 -0.2113963654501196 0  0.2343901841136658 0.3031458088961128 0  0.1561195030924493 -0.06553680147678266 0  0.1485501800845649 0.1522005597879607 0  0.07430925316253632 -0.4062458345836666 0  0.1875 0.4218721863942274 0  0.0625 0.4218721863942275 0  0.2776974776570886 -0.2252166395728846 0  -0.2310132101974821 0.2556304703469177 0  -0.2310132101974821 -0.2444695296530824 0  -0.3906265628125469 -0.3906296862497968 0  -0.3906265628125469 0.1094703137502032 0  -0.2812687506255001 0.09383750062512503 0  -0.2812687506255002 -0.406262499374875 0  -0.4101472686723712 0.2071199254696213 0  -0.4101472686723712 -0.2929800745303787 0  0.2470275540227946 -0.02585328932041452 0  0.4068247800249947 0.09140209453477602 0  -0.1176406316218027 0.3957739114529177 0  0.4080574838155757 -0.2809016730332933 0  0.3125 -0.4219344228213859 0  0.4088486496673779 -0.4088486496673779 0  0.1167033063099591 0.2455046542815969 0  -0.02381261413756171 0.2533622281544139 0  0.02735543470987723 0.08802303626707711 0  0.3144655814479235 0.2551097933485553 0  0.2801337679615206 0.4118308473117793 0  0.4101587089138863 0.2773478512831281 0  -0.09689860681079282 -0.4078094624324944 0  0.213976519574722 -0.2941495474331945 0  -0.318965898965983 0.2781458178971435 0  -0.3125 0.4357826538464097 0  -0.318965898965983 -0.2219541821028565 0  -0.3125 -0.06431734615359029 0  -0.4357704230694522 0.3125375 0  -0.4357704230694522 -0.1875625 0  0.4114732283419867 0.4114732283419867 0  -0.4234646583494089 0.4234743507195528 0  -0.4375 -0.0001 0  -0.4375 0.0001 0  0.3164258563077259 0.1230517971377134 0  0.04931026741366369 0.300666438050672 0  0.2304865209107167 0.1009680687096636 0  0.02061587644269779 -0.08558486663800556 0  0.09390691211100699 -0.2329943594667239 0  0.08896107880644889 -0.006809950500825342 0  -0.1875 0.5 0  -0.1392552316473008 -0.09019077220175532 0  0.4170297537744737 0.008612617817243748 0  -0.4243694331702185 -0.08478222235936261 0  -0.1416933693607303 -0.1709733993077484 0  -0.09511425322415427 -0.3261090638251909 0  -0.04508670308176045 0.4323857419859515 0  -0.4375 -0.5 0  -0.1187189609291948 0.1687838380963837 0  0.3117722643778845 -0.07351457101062323 0  0.1513445599038777 -0.4251753449096755 0  0.04472177709904164 -0.3011105058468416 0  0.001740722226491711 -0.4250539693950984 0  -0.03075788851996441 0.178560406845558 0  0.1766313586052732 -0.1370243862559475 0  -0.0761550533906552 0.3051296889632589 0  -0.1485469487091727 0.3268133048125818 0  0.1930083860569673 0.2386735170085497 0  -0.0625 -0.0001 0  -0.0625 0.0001 0  -0.2878141094770303 -0.1320687430427478 0  -0.2875995151119595 0.3444544772933048 0  -0.24076159142329 -0.07161431170272106 0  -0.24076159142329 0.428485688297279 0  0.4263700347703773 -0.1373417231816959 0  -0.1856875708107399 0.19821478019016 0  0.09322297310683496 0.06338537237428626 0  -0.07466041728962823 -0.1981228067401687 0  0.009513123991135172 -0.1613319531958586 0  0.3092144166352111 -0.1625850961304104 0  0.3437404121717113 -0.2534277690952264 0  0.4379744025071972 -0.2176839612869874 0  -0.1297061011176702 0.07587858854060507 0  -0.1875 0.0001 0  -0.1875 -0.0001 0  -0.1875 -0.5 0  -0.1633110600051376 -0.3090045011162743 0  -0.21877499875025 0.06259999875025002 0  -0.21875 -0.4375124968750625 0  -0.25001874937525 -0.3437749968748749 0  -0.2500187493752501 0.1563250031251251 0  -0.5 -0.4375125 0  -0.5 0.06258749999999999 0  0.08904799960830578 -0.08015900599685086 0  0.4108334826406196 0.3444103681633853 0  -0.0625 -0.5 0  0.4414087098136942 0.2187640586098291 0  0.4382361660678968 0.150288432919798 0  -0.3125 0.0001 0  -0.3125 -0.0001 0  -0.3416336343815852 0.06187820768002609 0  -0.3125 -0.5 0  -0.3416336343815852 -0.4382217923199739 0  0.3168016282179152 0.1891009224226147 0  0.4368875345166075 -0.3446993355472595 0  -0.05975660640830217 -0.2683150418715617 0  0.3458703977041003 0.4362216268226822 0  0.5 0.0625 0  0.5 0.3125 0  0.5 -0.0625 0  0.5 -0.4375 0  0.4375 -0.5 0  -0.04197328552084911 -0.06329083152961786 0  0.2257906778195176 0.03586621568734723 0  0.2286857476565217 0.36951555023185 0  0.3548787707540964 -0.3727197121900284 0  -0.1790795964032311 0.4125871598709088 0  -0.0278086253378118 0.05696913583040467 0  -0.2640893654172825 -0.190631969293494 0  -0.1533594275423699 -0.440977335357388 0  0.5 0.4375 0  0.4375 0.5 0  0.1704903431553385 0.2986434949108457 0  0.08721475273820462 0.1287687476127682 0  0.1875 -0.5 0  -0.0625 0.5 0  -0.4375 0.5 0  -0.3125 0.5 0  0.0625 0.5 0  0.125 0.4359369935185367 0  0.3125 -0.5 0  0.1875 0.5 0  0.0625 -0.5 0  0.5 -0.3125 0  0.5 -0.1875 0  0.5 0.1875 0  0.3125 0.5 0  -0.5 -0.1875625 0  -0.5 -0.3125375 0  -0.5 0.1875625 0  -0.5 0.3125375 0  -0.5 0.4375125 0  -0.5 -0.06258749999999999 0  0.3624254104606854 -0.1274336378120225 0  0.1857642697873453 -0.01126882530927889 0  0.03669184495608396 0.2400031982312926 0  0.04068015303098439 0.3629261100764373 0  -0.3851162339112683 0.269026866774594 0  -0.3758332300807991 -0.1995452526923809 0  -0.446144648587372 -0.34378125 0  -0.446144648587372 0.15631875 0  0.3504998016039519 -0.02589861883840036 0  0.2836777321248879 0.07223256202683162 0  0.21875 -0.4466460035652602 0  0.1774501368185094 -0.3419431906700547 0  0.2592287652038449 -0.3368353496836486 0  -0.4486577479325732 0.09383124999999998 0  -0.40625 0.05134972627205531 0  -0.4486577479325732 -0.40626875 0  -0.40625 -0.4487502737279447 0  -0.07907884158578801 0.2127234227389962 0  0.2826672956396865 0.340725212476292 0  0.2552094419670018 0.2470909165729528 0  0.1235030570827048 -0.3722630563328095 0  -0.1765523267242401 -0.2196325740312749 0  -0.3653881707177284 -0.256399556620603 0  -0.3667881364584723 -0.08355066867835562 0  0.1448027058369495 -0.2589171712236736 0  0.2204190758351349 -0.1742931558527921 0  0.125595190811689 -0.1854735536931699 0  0.2751135960266025 -0.2821263988783404 0  0.04714559827497029 0.03095590907283807 0  -0.3694518448121097 0.4428768192088114 0  -0.4163493718954405 0.3665341424253254 0  0.2065677312659464 -0.0897482605048449 0  0.04596501084766122 -0.2039288085874983 0  -0.3678348759016452 -0.3352975447880205 0  -0.3331464162279717 -0.3812640910313448 0  -0.3678348759016452 0.1648024552119795 0  -0.3331464162279716 0.1188359089686553 0  0.006928352547084439 0.4089314103168539 0  -0.008754979675293741 -0.28865535545956 0  0.454824000777391 -0.03125 0  0.4453084397952883 -0.08555947234219879 0  0.0400389030608287 -0.3591593324500765 0  -0.3565047668221014 0.2214443888382642 0  -0.1767790649240408 0.276160039146296 0  -0.4407450517553578 0.2555055370068006 0  -0.4424041217249974 -0.2449977221857678 0  -0.0101841459589043 0.1278467808234489 0  0.1946666826231925 0.1831558471035277 0  0.1023041143695485 0.1885027832887665 0  0.1383943178482503 0.09688656085697314 0  0.1738321521953076 0.3687430643819201 0  0.09375 -0.4563154147117792 0  -0.2831024225358643 0.2351964925231401 0  -0.2621637468582121 -0.2899792135739121 0  -0.2423367266168128 0.3108531660207947 0  0.3858515397252176 -0.3293494555229365 0  -0.09921103529049136 0.4494480844437962 0  -0.1387217209722605 -0.3554699308920083 0  -0.06600083182100508 0.3836351847814501 0  0.1309954671830858 -0.1114321286398948 0  -0.09375 -0.04518048647049126 0  0.04208778762923838 -0.03517827620526504 0  -0.08165643227347709 0.05080163226699017 0  0.2987692351119484 -0.01319048554596328 0  -0.4136288823076366 -0.1379960981994732 0  -0.1856470434007142 -0.05707095126749213 0  -0.15625 0.4588983004055426 0  0.301492156088943 -0.3696020442065089 0  0.2261014656445051 -0.2255765688706129 0  -0.0254711816102797 0.3040308714413081 0  -0.2359814035109398 0.2051098885755096 0  -0.2142660728025848 -0.3074346058732286 0  -0.0444842016587006 -0.3987296650352232 0  -0.06299926340697812 -0.4476735265309565 0  0.2370119789310965 0.4463270361850639 0  0.1025408210352734 0.3898406831534957 0  0.02523186154102609 0.456121755814222 0  0.2703582881149408 -0.4522472093634566 0  0.34375 -0.460967211410693 0  0.1519529867048281 0.2096636028655708 0  -0.1028373102819492 0.3477334553616848 0  0.2543545123482477 -0.07525044338081299 0  0.4586232703312498 
[...]
<PointData  Scalars="f_184501"> 
<DataArray  type="Float64"  Name="f_184501"  format="ascii">8.6834513897763003e-07  2.1977188196843934e-04  1.6295997580851249e-01  7.8014271467016047e-02  1.3327487970014853e-03  2.2187118007271493e-07  9.9787849282849750e-01  9.8798676043541211e-01  8.4142429656847238e-03  1.0567903114573788e-02  3.0435290407958619e-02  7.1707238932981613e-04  2.1924580510250630e-04  7.5720893130200697e-04  4.5938116324360130e-02  3.0361805356749084e-02  7.0680397823455698e-02  5.4561216012279028e-02  7.6784385841860148e-02  9.9706669219330767e-04  9.7372641350863430e-04  5.7172256450033355e-02  7.4697816281533666e-04  4.1692917579634473e-04  4.9487889741789263e-04  2.7468039516704817e-02  3.1323020606389994e-02  5.9043472316113982e-02  1.7977093213115519e-04  5.2010576469185409e-04  2.0852465481738719e-02  5.9868827459703428e-02  3.1158694481584777e-04  3.6677818026460126e-04  3.5972476316659251e-02  5.0523688251864790e-02  1.4098079360308724e-01  3.9070575765529809e-02  6.1205377522846285e-02  1.5183569697426384e-03  8.0612911262332055e-04  8.2561954851976989e-03  3.6636981976502942e-04  7.1216430752064890e-03  3.7939546425639026e-04  1.9646468422909076e-03  2.3065106254810362e-03  4.1053207252214331e-04  3.7972676348415564e-02  7.4104794256110081e-05  7.6997686001390765e-05  6.4894083856687428e-05  1.8980881601758263e-04  6.0209001314204366e-04  5.7648914740798834e-02  2.4861585942670583e-03  6.8500127022595114e-02  5.1857687266633840e-02  2.9526373447156837e-03  2.5369096231197825e-04  2.7077315228236594e-02  1.7567752954101273e-02  7.3103044007931620e-02  6.0897621974688454e-02  6.6504284517258602e-05  1.1393170876149946e-03  1.0242065575304916e-03  4.8973120468074727e-02  8.8061785222592493e-03  3.5972402564353516e-02  5.3970352850153308e-02  5.4060619631496776e-02  1.0676274582445372e-01  7.3764763817615805e-02  1.5176083714951057e-02  3.8342442463157926e-02  1.8505073575911437e-02  6.4718714567223723e-02  3.1840022446902831e-04  2.7371189860023404e-04  2.2093160226764513e-04  2.6556724625714486e-04  5.0225862220703947e-04  2.3477619244901757e-04  3.9694853888564894e-04  2.8192782358334970e-04  6.8605979711718876e-02  4.6279305362149928e-02  2.3882533566128459e-03  6.2685892028856285e-02  4.6719152052406135e-02  7.0044154707011780e-02  3.8403915006550222e-02  6.7246896882225361e-03  1.7359939529334321e-02  6.3005908771700786e-02  5.1209333161541429e-02  6.0993343547450167e-02  3.0804662756874399e-03  4.6105892958079847e-02  3.9010978191623497e-04  1.0061983266586575e-04  3.4625559561246827e-04  3.4821192030587498e-04  5.2114217055331718e-04  2.4715593067738752e-04  6.4973696830464070e-02  5.6379343279962984e-04  1.0139061125168967e-05  8.4157698815057620e-06  6.1387356866492604e-02  1.8293272416558551e-02  7.9235524300770119e-02  1.1726577879853211e-02  2.8046269099564331e-02  6.0632636991587308e-01  8.7456025332487467e-04  4.3284428434430515e-04  4.1325642533643236e-02  1.1028942804535208e-04  2.8934501771040892e-04  2.5635646271371677e-03  6.6823406715807174e-03  1.5628564169933794e-04  4.8125363417460336e-04  6.1098265922001897e-02  2.2562699087367369e-02  1.4273140472373136e-02  8.3855098216978983e-03  4.3086709984925479e-03  7.4625233280788947e-02  3.4756809818049703e-03  1.0773737686426783e-03  5.8213068589264380e-02  6.4905680198272635e-03  7.9112752086725417e-03  4.5855097058415797e-04  2.1538133841078640e-04  5.3399984968409170e-04  2.6793490683948756e-04  5.0071489980027528e-02  3.0848999737480943e-04  1.7698970591493912e-01  1.9789823056399146e-03  1.0173656249984047e-02  6.7561333991165262e-02  6.3749660408650294e-02  5.5674962567984099e-02  6.6813260804172970e-04  1.3315317190232951e-03  1.4640016176788910e-03  1.6014667521122297e-03  8.1244516230222523e-04  6.2713107566954220e-04  7.6948399742888174e-04  2.5699045966648816e-04  4.9114294553478683e-04  4.5479985200647392e-04  8.3566995880281339e-06  5.7212043381907496e-02  6.3477406880769471e-02  5.2721950001358700e-03  5.4702213145728429e-02  4.7899501508602810e-02  2.8341061757345022e-04  2.9696304422232255e-04  2.6857335640820821e-04  3.4476805677609843e-04  1.8774790109980774e-04  6.4937034570168750e-02  6.7084144305188512e-02  3.7444332597662733e-03  5.7956230107924757e-02  3.2050541874768274e-02  6.6401981855021719e-02  3.3048416912761447e-02  9.2538662919796871e-02  8.0368795378992039e-02  2.7768577094364716e-03  7.4128322776412847e-02  4.6892812544614547e-02  5.9748570614657687e-02  9.0410075537578928e-04  3.2015036758790655e-03  3.7472331823748995e-04  1.8452783750756993e-03  7.6980708718143595e-02  6.9652521029931747e-02  4.4153519409189573e-02  5.0175433190610269e-02  2.3722057441436916e-02  5.5543305950400360e-03  7.1879941219806767e-04  7.4166751258618338e-05  1.8195492331011632e-02  2.8225548222705999e-02  3.8672876923980914e-02  3.7226594803508838e-02  1.2583842725773292e-02  6.1732885669217683e-02  4.7215557575348531e-02  4.7186796084943292e-02  5.3352618125353669e-02  2.1691453944025342e-04  5.7260055816677608e-04  2.2463239916639194e-04  8.4251270929205609e-04  1.3682167938687839e-03  9.4895604258251537e-06  5.8401641252369227e-02  1.0973357899732057e-01  1.6912177163877620e-02  1.6088785906117040e-02  4.4231185107027998e-04  3.4719299734199547e-04  3.7133283268269096e-04  2.0299011171988853e-04  4.9656775439848692e-02  6.0393770514858912e-02  2.9408502808405412e-02  3.3715657872378048e-02  4.8139518323192812e-02  8.3599799441878416e-05  8.5194534439144223e-05  3.7460461569005651e-04  2.2305110109992128e-04  1.8075647253730078e-03  5.5491732143679293e-02  6.2822238291362922e-02  2.2792577170498450e-02  3.2412764872569676e-04  2.8862973498175926e-04  2.5000836437535717e-04  3.7519257132110614e-02  6.9681825682117615e-02  4.5094811173950491e-02  5.7676244160199987e-02  9.0188817969781920e-01  2.4819741997200896e-04  4.9444894839413057e-04  8.8321638329484545e-02  1.8150315203512304e-02  2.0290931305800896e-04  1.4556279760256626e-04  4.3687787438613567e-04  4.4871380911007717e-04  1.1348459020986667e-02  7.8629834649027210e-03  3.6891286725790881e-02  4.2170703496812699e-02  1.2361602630734382e-02  4.9180530324175375e-04  4.9033261402895096e-04  4.3484727498384356e-04  3.0575756368128571e-04  4.8224826525992380e-03  7.0926491542571773e-02  4.2710476824124426e-02  1.0502462531537395e-01  3.8484083941553400e-02  1.5451092704074484e-02  4.3410605892095467e-04  2.2308488656984507e-04  2.8655696991504394e-04  6.4614814374323148e-02  3.4404138037333744e-03  1.5008072470464998e-03  4.7933163356947816e-03  7.1429973424193230e-02  1.4399125389203016e-03  6.5797395023872191e-02  1.3508020022467910e-03  5.5355346172101083e-02  2.2801358898012319e-04  7.7260151381411792e-04  1.5135024200264348e-03  5.1181222555398261e-02  6.0280517432653564e-02  7.3570609766074853e-03  3.9342314707360113e-04  3.5612743687646179e-04  5.3773300018243085e-03  4.8432717298931872e-03  4.4532729723843929e-02  2.5443343615977467e-02  1.3580571614806775e-02  3.5794884376832842e-02  4.7562045884028223e-02  5.5753782468962843e-02  2.6349102360801518e-03  7.3991937917458353e-02  3.9479448909633327e-02  5.1924966718311365e-02  5.3074195067765575e-02  3.5473418219241104e-02  4.5353818835696335e-04  5.0709441632233656e-04  4.3116593177034627e-04  5.2152359724556493e-04  3.4076036317856273e-02  6.1368230680224324e-02  6.1588873209032724e-02  6.2552434080026203e-05  7.7425263524749821e-02  6.6492350806562420e-02  6.0145679211707624e-02  1.5887349516731864e-02  6.5496776891410341e-02  1.1639008352669041e-02  4.5400874796852744e-02  6.1161468803045807e-02  1.8850670941346147e-02  2.7253411882124012e-01  2.0257789287187267e-05  8.3281182574331758e-02  6.1394447863508950e-02  9.3321935617273338e-02  1.8876716679482673e-04  6.5042930005916558e-02  7.0861687902301407e-02  6.8232818444313975e-02  6.0615936960982858e-02  4.1006923691654069e-04  6.6128332226688769e-04  1.1228040486952330e-03  4.2594128149203557e-04  6.5829299710890146e-02  1.6892343592122771e-04  3.1195614138079748e-04  1.8676077847098504e-05  4.7669868155578738e-03  3.6733301705405735e-04  5.2838670455941719e-02  4.3365751555891023e-04  5.9654654790776820e-02  4.7020702118858202e-04  5.6355806747581040e-02  6.8736755481485848e-02  2.6541952974443038e-03  2.8989457767634585e-04  9.8916010682464472e-02  1.9962140501407710e-02  3.8927037591654994e-04  2.9491961973501216e-04  5.2756583764578344e-03  1.0531225996414963e-02  2.8282938699429713e-04  4.0958072204881922e-04  1.1389470895463436e-03  1.5772616872752074e-04  5.2904343380969453e-04  9.1027255302456370e-04  4.7887339354448305e-02  2.5403275537677834e-04  2.7985931488119342e-04  3.1435134735131810e-03  9.2118547332077205e-04  5.8727533409125049e-04  6.2040999718380823e-04  1.4934759558600039e-04  7.4852854781647256e-04  9.7359549669262838e-05  4.5075456034176776e-04  1.9164440416233141e-04  3.9169791340280455e-04  3.3322355569281783e-04  7.1287028341538772e-02  3.2424165481181114e-02  2.1652106987455160e-02  4.6046702707209369e-02  3.7592216069816338e-02  1.4246889003164684e-01  6.4644659834628720e-02  1.2315523644599148e-02  4.9595141644097819e-02  5.9752427174087998e-02  5.7325384714732107e-02  4.5490834318357755e-04  7.6826999010247574e-02  2.7753914631373149e-02  3.5823720536401846e-03  1.3864675954319142e-03  1.0613547176753677e-03  9.1598215334594193e-04  4.0969360977556456e-02  3.5803967631126182e-03  2.7579523423020207e-02  5.8564447278625358e-02  4.7951869702876160e-04  2.9072842080908386e-02  1.2105328898643708e-02  2.5264893423710345e-02  2.2889285364376847e-02  6.3299355701912571e-02  1.8053382595146579e-03  8.0395038103402909e-04  3.2739422181844507e-04  5.0025275400573599e-05  2.6254911920868981e-02  6.0187715986379162e-02  6.5977519145847582e-02  6.8776730448774678e-02  4.3303062749836446e-02  2.6246901869428494e-02  2.3826582245650010e-02  5.5464812532506638e-02  3.2830223156876143e-02  6.7774029262906002e-02  2.2135314564531049e-04  6.3770191856840912e-04  2.5328458683922841e-04  4.5334717979187882e-03  4.2555349204801855e-04  4.1669945591108440e-02  6.6893074430448771e-03  7.3611309588040678e-03  3.0057858429050358e-02  1.9909504351009618e-03  4.6793305164769171e-02  3.0112501703398638e-04  4.6519829751297850e-04  3.1169159648366694e-04  7.7567740367107891e-03  9.0312525314797429e-02  4.1148424832738409e-02  1.0195192183907844e-02  5.6287718668751271e-04  1.3019671869106002e-04  3.0114995469913378e-04  5.3856509837413892e-02  1.0678837157786232e-03  1.1952010437809768e-01  1.8526146417170201e-02  1.9337461938591621e-02  4.7974214904789661e-03  2.6539147210376360e-04  3.4360560703433954e-04  7.5282643921834591e-02  4.9634575873963539e-04  3.3499290820883821e-04  3.9139422584783229e-02  1.8718346645718885e-04  3.8907794626116246e-04  2.7127650182623669e-04  2.4670942178582129e-04  3.8694207640226693e-04  4.6786551678068763e-02  7.8218380508895090e-03  6.9100813635563307e-02  7.7986803766617957e-02  3.7515789467912889e-04  6.6393924016852013e-02  5.6668185538263291e-02  4.8396469822762765e-02  4.7477425783071578e-04  4.6306938644958098e-04  4.1347657724941718e-04  5.5349685562098148e-02  9.7372095200322153e-03  5.8230607793530183e-02  6.2557083517866208e-02  9.0628756584226408e-03  2.4717922758243628e-04  3.1592204194614409e-01  1.2863919374344714e-03  4.2075551087592526e-02  5.3649539487099149e-02  6.8558066934079259e-02  7.1490267116006807e-04  2.0046904363615154e-03  9.6313260133232270e-03  4.5990181941826750e-03  1.2601830309158288e-04  5.9045054774564586e-02  4.6047712417526500e-04  4.8540296734628167e-02  4.2941263823754433e-02  8.9438600317620437e-02  6.3036235946384467e-02  8.8127157042905996e-02  7.7122777371011433e-02  6.0330343862756694e-02  1.0442281187898186e-03  2.7978656295278917e-02  5.3043773007600201e-02  9.9724492225602597e-03  2.0677422539552236e-03  3.9953862062041628e-02  2.0293282047003251e-02  4.1860985975374449e-03  3.9235756645271663e-03  1.0449733031166477e-02  2.8478498354300214e-04  2.3907355740316089e-04  6.3397215885523842e-02  5.6692677240271902e-03  6.1378075845133664e-04  1.9321801907371046e-04  3.1679032305556522e-04  8.8315015409279861e-04  3.7267908953638774e-02  1.9781214761238337e-03  1.1188764758042438e-02  6.1581024115796586e-02  2.5774436167296570e-02  2.9704144772831043e-04  7.6060132379390244e-02  3.4506262240296482e-04  2.2929495129923188e-04  4.9534725102687679e-02  5.3398781191473010e-02  5.6986164368931690e-02  2.2845124536386322e-04  3.2126179976463065e-04  1.5305739010997545e-04  5.0358191033397456e-04  5.5273038001000087e-04  2.6376585222251218e-04  1.0262105955859297e-04  2.9808719490821121e-02  5.6133601669102869e-02  5.1604641863219711e-02  6.3459498669603071e-02  9.6876733970731738e-03  4.2766692972213131e-02  6.2756484837099710e-02  1.6266348070684653e-03  4.7864849205510396e-03  8.2043415295301059e-01  1.1174623947671615e-03  1.4327439462838386e-03  1.2583197238204708e-04  2.0635720915815778e-04  2.0337618611038791e-04  1.9863931202606443e-04  3.8833505074738199e-02  1.2857647258056196e-04  5.4889121443463189e-02  6.0571843480428669e-02  6.1313627861153512e-02  7.1178096443513042e-02  6.7711508972079767e-02  6.4198931385521865e-02  6.4548026265956765e-02  6.9968948339217088e-02  6.3416421876758097e-02  5.9742992941263069e-02  5.6254680715271836e-02  6.3180245782223129e-02  3.6114771151024759e-02  4.5136820164399057e-04  1.0222703840240294e-03  1.0539402692134880e-03  9.1434434908080570e-04  7.4304040261414919e-02  1.8503907582968283e-04  2.3450206525874311e-04  5.4652081778191846e-04  7.1648510877488016e-04  5.2947691297360793e-04  4.3554643171789384e-04  1.4014436837948420e-03  1.0852309569373672e-03  2.1866617403284486e-03  8.1896678350700653e-04  6.6513467590172251e-02  4.3049961408570409e-04  6.5036979606853604e-03  1.4890092981633155e-01  1.8952710586617198e-03  2.0603091197979484e-02  4.7698968237591368e-04  4.8299110811639019e-02  2.4874976714930712e-04  1.4814279809239497e-04  1.6108141025309076e-04  5.4291391968388815e-02  7.3779921052942389e-04  5.1009758571259167e-02  8.8037187208683074e-02  4.7515724762266759e-02  6.2001703139332428e-03  6.5208560923194644e-02  2.5230292746414442e-04  2.7847916010703715e-04  2.3763294966653733e-03  2.9084335336186052e-03  6.1515396189389455e-02  1.8461797003133157e-03  6.4495707912784167e-02  1.9898844680931786e-02  3.3820243404095202e-02  7.1578339183679673e-02  6.3463242221534891e-02  9.2243040563797757e-02  2.3548190007020970e-03  5.2976183376157271e-04  4.6673325613200313e-04  4.5135575684560124e-04  4.7741254832608201e-02  4.1771347153046749e-02  6.2138773163389616e-02  2.0454071429416812e-02  4.5865328542100750e-02  4.0627713129756868e-03  5.2107897705774016e-02  4.1570028706729198e-02  4.3157992113469275e-02  4.0132029062913627e-03  7.1705407800014337e-03  4.5837497564764400e-02  5.2288979921056800e-02  5.6657984450447896e-02  5.8764982567000690e-02  6.1063351812526093e-03  9.4331677528410707e-01  4.9804836273197831e-04  4.8531502449416846e-04  4.9766670425426289e-04  1.8953381025328159e-03  4.5231703734839525e-04  6.1717345937223479e-02  1.7643907294427413e-02  1.7274245638989089e-04  4.2576810775868433e-04  4.6390290539570657e-04  7.3175008460085705e-02  3.0788471067548760e-02  7.5172020108855903e-02  5.1593003549231260e-04  3.8909086831486416e-04  3.5544939441868882e-04  3.8714388049317512e-04  2.4377384453986924e-03  8.4178294083121427e-02  7.5452975803223202e-02  1.0122296696389062e-01  2.6700929146337889e-04  6.8427543336206653e-02  3.0066856264726561e-04  5.3989398734971362e-02  6.4062711163031930e-02  2.1691745185848887e-02  6.4376054361795680e-04  7.6604592781644498e-02  3.0717864444483163e-02  4.6037118180461840e-04  2.5342904982640596e-06  2.5920749825456402e-06  1.9493481697256775e-06  4.2321121420076384e-04  6.0428212539305481e-04  1.7556608318978174e-04  3.3675090771817404e-04  1.9414526594061738e-06  7.1413889998806794e-03  1.1333832360802797e-01  1.4065494862828268e-01  4.1792948102600834e-02  7.1585267353370060e-04  1.5412119850995153e-02  3.3364309516015052e-02  2.3675986923616447e-02  2.6568810206995926e-02  5.0980203723972072e-02  4.9766310637078578e-02  6.3847613653355645e-02  6.1313284350527672e-02  1.1876060493393598e-02  5.6300216990639695e-02  5.4563149782712428e-02  3.4863195578552587e-02  6.9864250811184066e-04  5.2576047344559404e-04  1.4193256135816362e-03  1.9362966292007667e-03  1.6798328986873169e-03  1.2904074644275801e-03  5.8811640842193431e-02  1.4143761583552681e-03  3.9363218445029216e-04  4.2849364093362177e-04  3.0366011603212280e-04  6.9053402164844055e-02  3.8402348587138609e-04  3.3177044647591142e-04  2.1238772494879021e-04  1.1651150914156312e-02  1.7386732890280185e-02  3.4365059380197342e-02  1.1105956935639272e-04  1.1085929215629206e-01  1.9700461996241189e-04  7.9557348248110438e-04  3.7299079931038967e-02  1.1751294421191312e-04  4.2812104936340155e-04  5.7271999808038820e-02  5.1669494580088432e-02  2.2517720465537374e-02  3.2467551364174604e-02  3.0001710648548967e-04  9.2293622876589044e-05  7.0014560662149880e-02  6.5113293306707468e-02  6.1910433112857467e-02  5.8133028531666193e-02  6.1953150485333570e-02  7.5436390445791465e-02  2.8048533743089626e-05  2.9643151998286208e-05  3.0634443243648533e-02  3.4579552521896338e-02  4.4852922849620627e-02  1.4199762172096040e-02  1.4668090103906993e-03  3.7793459864630583e-03  1.5013791946353912e-02  3.1103823086450315e-02  1.6583684265626846e-04  2.6845786975731398e-02  4.6644845800434458e-04  1.0407675127411949e-02  4.9715680347496932e-02  1.3693681169373092e-03  2.6308431865712211e-05  1.3046311008532959e-04  2.6565929194522375e-05  1.2462782659155400e-04  5.5384929295771519e-04  6.1270694236228974e-04  9.9333923543134129e-04  1.1933367639859870e-03  4.5457212986958189e-03  5.3125580445375305e-02  4.8922855925161678e-04  1.9535286110177022e-04  4.2022446236421748e-02  5.3110326025880769e-02  3.3257031576901686e-04  4.0043380232932289e-04  1.7530632294889714e-04  1.7465080337688581e-04  1.8012903872965835e-02  1.0844835156622299e-02  1.7308011263517522e-02  5.4911338940779264e-02  7.1824090676403912e-02  2.7985990432012161e-02  3.0320827297390707e-02  5.4095749637325094e-02  5.9442198991988757e-02  5.6746630327127845e-02  9.1848556133566558e-03  6.3760296537822073e-02  1.7447831881833738e-02  4.3976947899995567e-02  2.4293617651665184e-03  5.8977179527923931e-02  5.9736916264643359e-04  4.9729343798896972e-02  5.9142392421583914e-03  5.7325798597228125e-02  3.6201537724966205e-04  4.8599989644537163e-02  1.5356439975788552e-01  6.9703415992860271e-02  4.7769792615467372e-03  4.4129353320533759e-03  4.3618581838080156e-04  3.0007972840502382e-04  4.7006239430311004e-03  6.1562173975824599e-02  6.9592934882908408e-02  3.0223989098273805e-04  5.9980926050795788e-02  6.2236414305341201e-02  2.8761998038938488e-02  3.0509365502701000e-04  2.4272723402147397e-04  2.4832565386186784e-04  1.5151523688820010e-04  3.0303035908620292e-04  6.3962591253565498e-05  3.5653215322725605e-02  3.9569345774384458e-02  2.9645448018768398e-02  2.8367420069115985e-05  4.5272452742875285e-04  2.0572462625275369e-04  2.7681869012975459e-05  2.8764523891732988e-04  9.3741296151601827e-05  7.3503231099052629e-02  3.0049348128410039e-04  2.4050629790030794e-04  4.5481420828420607e-04  5.0224652134759045e-04  1.4748824306652669e-04  5.8553464945491546e-02  6.6216900295438530e-02  6.3185293920801078e-02  2.3743703680691543e-02  2.2030254399527251e-02  5.6076195239792959e-02  5.7949157819128187e-04  7.6016084690787723e-04  1.2252096196424479e-04  4.8853495009548227e-02  3.6746682869002088e-02  3.2199632409439204e-03  6.1791757052983717e-02  2.5468392987446852e-03  1.2573746749267294e-03  1.0236288944149578e-01  5.0908655964434509e-02  3.0728426143045227e-04  3.1749143941781554e-04  5.8001133922994629e-02  3.9582020765356623e-04  3.9298802220832880e-04  5.6714886969391358e-02  3.1347796414362868e-02  3.6703159723289393e-02  5.2007138398765813e-02  3.3448776612493857e-04  5.6681469380044008e-02  2.5545894647722268e-02  2.5714816729954914e-02  1.402577971