<?xml version="1.0"?>
<VTKFile type="UnstructuredGrid"  version="0.1"  >
<UnstructuredGrid>
<Piece  NumberOfPoints="1515" NumberOfCells="2858">
<Points>
<DataArray  type="Float64"  NumberOfComponents="3"  format="ascii">-0.5 -0.0001 0  -0.5 -0.5 0  0.5 -0.5 0  0.5 0.5 0  -0.5 0.5 0  -0.5 0.0001 0  0 0.0001 0  0 -0.0001 0  0 -0.5 0  0 0.5 0  0.5 0 0  -0.25 0.0001 0  -0.25 0.5 0  -0.25 -0.0001 0  0.25 0.5 0  0.25 -0.5 0  0.2500374937493749 0.1875187468746875 0  0.5 -0.25 0  0.25002499 -0.125 0  -0.125 -0.25005 0  -0.125 0.25005 0  0.5 0.25 0  -0.25 -0.5 0  -0.5 -0.25005 0  -0.5 0.25005 0  0.125 -0.3124916691673332 0  0.125 0.3437443727884549 0  0.3187498332767468 -0.3187498332767468 0  -0.3125 -0.3125124974994999 0  -0.3125 0.1875875025005001 0  0.04436566007004419 0.1785185187387698 0  0.3437706224620182 0.3437706224620182 0  -0.359407810625422 0.3594296915637348 0  -0.359407810625422 -0.1406703084362652 0  0.08209948494863104 -0.1484533219292508 0  0.3281296842191969 0.03125624875007487 0  0.1612337437527647 0.0454945319044936 0  0.5 -0.125 0  0.3736573308633327 -0.1902100573489204 0  -0.05632383965282133 -0.1281636979131719 0  -0.1875249975 -0.37501249874975 0  -0.02161822989173764 0.354580025951059 0  -0.2160757009003203 -0.1393657085918785 0  -0.01783801249259284 -0.3526895391541273 0  -0.2160757009003203 0.3607342914081215 0  -0.125 0.0001 0  -0.125 -0.0001 0  -0.1875249975 0.1250875012502501 0  0.5 0.125 0  -0.375 0.0001 0  -0.375 -0.0001 0  -0.5 0.125075 0  -0.375 -0.5 0  -0.5 -0.375025 0  0.3828324180271084 0.1875 0  -0.125 0.5 0  0.5 -0.375 0  0.375 -0.5 0  -0.125 -0.5 0  -0.375 0.5 0  0.125 0.5 0  0.125 -0.5 0  0.5 0.375 0  0.375 0.5 0  -0.5 -0.125075 0  -0.5 0.375025 0  -0.06200365993838185 0.1102431244359298 0  0.3921286730834987 -0.07100003899567721 0  -0.001178265146973292 -0.2342725669761844 0  0.219639755882476 -0.3848202826230195 0  0.1764909845376315 -0.2113963654501196 0  0.2343901841136658 0.3031458088961128 0  0.1561195030924493 -0.06553680147678266 0  0.1485501800845649 0.1522005597879607 0  0.07430925316253632 -0.4062458345836666 0  0.1875 0.4218721863942274 0  0.0625 0.4218721863942275 0  0.2776974776570886 -0.2252166395728846 0  -0.2310132101974821 0.2556304703469177 0  -0.2310132101974821 -0.2444695296530824 0  -0.3906265628125469 -0.3906296862497968 0  -0.3906265628125469 0.1094703137502032 0  -0.2812687506255001 0.09383750062512503 0  -0.2812687506255002 -0.406262499374875 0  -0.4101472686723712 0.2071199254696213 0  -0.4101472686723712 -0.2929800745303787 0  0.2470275540227946 -0.02585328932041452 0  0.4068247800249947 0.09140209453477602 0  -0.1176406316218027 0.3957739114529177 0  0.4080574838155757 -0.2809016730332933 0  0.3125 -0.4219344228213859 0  0.4088486496673779 -0.4088486496673779 0  0.1167033063099591 0.2455046542815969 0  -0.02381261413756171 0.2533622281544139 0  0.02735543470987723 0.08802303626707711 0  0.3144655814479235 0.2551097933485553 0  0.2801337679615206 0.4118308473117793 0  0.4101587089138863 0.2773478512831281 0  -0.09689860681079282 -0.4078094624324944 0  0.213976519574722 -0.2941495474331945 0  -0.318965898965983 0.2781458178971435 0  -0.3125 0.4357826538464097 0  -0.318965898965983 -0.2219541821028565 0  -0.3125 -0.06431734615359029 0  -0.4357704230694522 0.3125375 0  -0.4357704230694522 -0.1875625 0  0.4114732283419867 0.4114732283419867 0  -0.4234646583494089 0.4234743507195528 0  -0.4375 -0.0001 0  -0.4375 0.0001 0  0.3164258563077259 0.1230517971377134 0  0.04931026741366369 0.300666438050672 0  0.2304865209107167 0.1009680687096636 0  0.02061587644269779 -0.08558486663800556 0  0.09390691211100699 -0.2329943594667239 0  0.08896107880644889 -0.006809950500825342 0  -0.1875 0.5 0  -0.1392552316473008 -0.09019077220175532 0  0.4170297537744737 0.008612617817243748 0  -0.4243694331702185 -0.08478222235936261 0  -0.1416933693607303 -0.1709733993077484 0  -0.09511425322415427 -0.3261090638251909 0  -0.04508670308176045 0.4323857419859515 0  -0.4375 -0.5 0  -0.1187189609291948 0.1687838380963837 0  0.3117722643778845 -0.07351457101062323 0  0.1513445599038777 -0.4251753449096755 0  0.04472177709904164 -0.3011105058468416 0  0.001740722226491711 -0.4250539693950984 0  -0.03075788851996441 0.178560406845558 0  0.1766313586052732 -0.1370243862559475 0  -0.0761550533906552 0.3051296889632589 0  -0.1485469487091727 0.3268133048125818 0  0.1930083860569673 0.2386735170085497 0  -0.0625 -0.0001 0  -0.0625 0.0001 0  -0.2878141094770303 -0.1320687430427478 0  -0.2875995151119595 0.3444544772933048 0  -0.24076159142329 -0.07161431170272106 0  -0.24076159142329 0.428485688297279 0  0.4263700347703773 -0.1373417231816959 0  -0.1856875708107399 0.19821478019016 0  0.09322297310683496 0.06338537237428626 0  -0.07466041728962823 -0.1981228067401687 0  0.009513123991135172 -0.1613319531958586 0  0.3092144166352111 -0.1625850961304104 0  0.3437404121717113 -0.2534277690952264 0  0.4379744025071972 -0.2176839612869874 0  -0.1297061011176702 0.07587858854060507 0  -0.1875 0.0001 0  -0.1875 -0.0001 0  -0.1875 -0.5 0  -0.1633110600051376 -0.3090045011162743 0  -0.21877499875025 0.06259999875025002 0  -0.21875 -0.4375124968750625 0  -0.25001874937525 -0.3437749968748749 0  -0.2500187493752501 0.1563250031251251 0  -0.5 -0.4375125 0  -0.5 0.06258749999999999 0  0.08904799960830578 -0.08015900599685086 0  0.4108334826406196 0.3444103681633853 0  -0.0625 -0.5 0  0.4414087098136942 0.2187640586098291 0  0.4382361660678968 0.150288432919798 0  -0.3125 0.0001 0  -0.3125 -0.0001 0  -0.3416336343815852 0.06187820768002609 0  -0.3125 -0.5 0  -0.3416336343815852 -0.4382217923199739 0  0.3168016282179152 0.1891009224226147 0  0.4368875345166075 -0.3446993355472595 0  -0.05975660640830217 -0.2683150418715617 0  0.3458703977041003 0.4362216268226822 0  0.5 0.0625 0  0.5 0.3125 0  0.5 -0.0625 0  0.5 -0.4375 0  0.4375 -0.5 0  -0.04197328552084911 -0.06329083152961786 0  0.2257906778195176 0.03586621568734723 0  0.2286857476565217 0.36951555023185 0  0.3548787707540964 -0.3727197121900284 0  -0.1790795964032311 0.4125871598709088 0  -0.0278086253378118 0.05696913583040467 0  -0.2640893654172825 -0.190631969293494 0  -0.1533594275423699 -0.440977335357388 0  0.5 0.4375 0  0.4375 0.5 0  0.1704903431553385 0.2986434949108457 0  0.08721475273820462 0.1287687476127682 0  0.1875 -0.5 0  -0.0625 0.5 0  -0.4375 0.5 0  -0.3125 0.5 0  0.0625 0.5 0  0.125 0.4359369935185367 0  0.3125 -0.5 0  0.1875 0.5 0  0.0625 -0.5 0  0.5 -0.3125 0  0.5 -0.1875 0  0.5 0.1875 0  0.3125 0.5 0  -0.5 -0.1875625 0  -0.5 -0.3125375 0  -0.5 0.1875625 0  -0.5 0.3125375 0  -0.5 0.4375125 0  -0.5 -0.06258749999999999 0  0.3624254104606854 -0.1274336378120225 0  0.1857642697873453 -0.01126882530927889 0  0.03669184495608396 0.2400031982312926 0  0.04068015303098439 0.3629261100764373 0  -0.3851162339112683 0.269026866774594 0  -0.3758332300807991 -0.1995452526923809 0  -0.446144648587372 -0.34378125 0  -0.446144648587372 0.15631875 0  0.3504998016039519 -0.02589861883840036 0  0.2836777321248879 0.07223256202683162 0  0.21875 -0.4466460035652602 0  0.1774501368185094 -0.3419431906700547 0  0.2592287652038449 -0.3368353496836486 0  -0.4486577479325732 0.09383124999999998 0  -0.40625 0.05134972627205531 0  -0.4486577479325732 -0.40626875 0  -0.40625 -0.4487502737279447 0  -0.07907884158578801 0.2127234227389962 0  0.2826672956396865 0.340725212476292 0  0.2552094419670018 0.2470909165729528 0  0.1235030570827048 -0.3722630563328095 0  -0.1765523267242401 -0.2196325740312749 0  -0.3653881707177284 -0.256399556620603 0  -0.3667881364584723 -0.08355066867835562 0  0.1448027058369495 -0.2589171712236736 0  0.2204190758351349 -0.1742931558527921 0  0.125595190811689 -0.1854735536931699 0  0.2751135960266025 -0.2821263988783404 0  0.04714559827497029 0.03095590907283807 0  -0.3694518448121097 0.4428768192088114 0  -0.4163493718954405 0.3665341424253254 0  0.2065677312659464 -0.0897482605048449 0  0.04596501084766122 -0.2039288085874983 0  -0.3678348759016452 -0.3352975447880205 0  -0.3331464162279717 -0.3812640910313448 0  -0.3678348759016452 0.1648024552119795 0  -0.3331464162279716 0.1188359089686553 0  0.006928352547084439 0.4089314103168539 0  -0.008754979675293741 -0.28865535545956 0  0.454824000777391 -0.03125 0  0.4453084397952883 -0.08555947234219879 0  0.0400389030608287 -0.3591593324500765 0  -0.3565047668221014 0.2214443888382642 0  -0.1767790649240408 0.276160039146296 0  -0.4407450517553578 0.2555055370068006 0  -0.4424041217249974 -0.2449977221857678 0  -0.0101841459589043 0.1278467808234489 0  0.1946666826231925 0.1831558471035277 0  0.1023041143695485 0.1885027832887665 0  0.1383943178482503 0.09688656085697314 0  0.1738321521953076 0.3687430643819201 0  0.09375 -0.4563154147117792 0  -0.2831024225358643 0.2351964925231401 0  -0.2621637468582121 -0.2899792135739121 0  -0.2423367266168128 0.3108531660207947 0  0.3858515397252176 -0.3293494555229365 0  -0.09921103529049136 0.4494480844437962 0  -0.1387217209722605 -0.3554699308920083 0  -0.06600083182100508 0.3836351847814501 0  0.1309954671830858 -0.1114321286398948 0  -0.09375 -0.04518048647049126 0  0.04208778762923838 -0.03517827620526504 0  -0.08165643227347709 0.05080163226699017 0  0.2987692351119484 -0.01319048554596328 0  -0.4136288823076366 -0.1379960981994732 0  -0.1856470434007142 -0.05707095126749213 0  -0.15625 0.4588983004055426 0  0.301492156088943 -0.3696020442065089 0  0.2261014656445051 -0.2255765688706129 0  -0.0254711816102797 0.3040308714413081 0  -0.2359814035109398 0.2051098885755096 0  -0.2142660728025848 -0.3074346058732286 0  -0.0444842016587006 -0.3987296650352232 0  -0.06299926340697812 -0.4476735265309565 0  0.2370119789310965 0.4463270361850639 0  0.1025408210352734 0.3898406831534957 0  0.02523186154102609 0.456121755814222 0  0.2703582881149408 -0.4522472093634566 0  0.34375 -0.460967211410693 0  0.1519529867048281 0.2096636028655708 0  -0.1028373102819492 0.3477334553616848 0  0.2543545123482477 -0.07525044338081299 0  0.4586232703312498 
[...]
<PointData  Scalars="f_184501"> 
<DataArray  type="Float64"  Name="f_184501"  format="ascii">1.4905970798389957e-06  2.2108804122035038e-04  9.9007543212646293e-02  4.1905361755305612e-02  8.5707904845341235e-04  3.2065450054625173e-07  3.2936416506937438e-01  3.3002602466954511e-01  1.0443279470864684e-02  1.6327687876748643e-02  2.0828566181624177e-02  8.4861533990277373e-04  1.1779245395474145e-03  9.4965741152018817e-04  3.3755523247196668e-02  2.2916033452301976e-02  3.6031960887267692e-02  2.7297197172236547e-02  3.4625566256721751e-02  4.3697028738971791e-03  5.0823096922037424e-03  3.2279429913001721e-02  2.0938578403583955e-03  4.4550120956625378e-04  4.5737222739198295e-04  2.7076619022989804e-02  3.0206602276301456e-02  3.5907873418791425e-02  2.6210085799294609e-04  1.7821745539191617e-04  3.5319307117247289e-02  3.5661378307083595e-02  5.4882081699707330e-05  2.6265718820177823e-04  4.2802640588338721e-02  2.8196284890054633e-02  3.4828759018427490e-02  2.2210839529195593e-02  3.2001228564186711e-02  1.4416135573670469e-02  2.4732686674957534e-03  1.5363700580237952e-02  2.0144314616749552e-04  1.2033526751017926e-02  1.6104338104948478e-03  2.4124045685108928e-03  2.4458256847762808e-03  2.9866064804128292e-04  2.4687776992152678e-02  1.0405364786624935e-04  1.1826131219862490e-04  8.3973116184179157e-05  7.2745502542285870e-04  3.8950595699728915e-04  3.1594737608226280e-02  6.3038144073132955e-03  3.6553203757778430e-02  3.3203285902168526e-02  5.2038372134739462e-03  3.8960831013654930e-05  2.7232346641483246e-02  1.6431678201081153e-02  3.9298522628102163e-02  3.6705434228432088e-02  1.0000278919705487e-04  8.1966911804644120e-04  1.3881592701698871e-02  2.6993069979534230e-02  1.9169438685557538e-02  2.7655024027168084e-02  3.7583884328438219e-02  3.5687809973506811e-02  3.7429865264602506e-02  4.0850105902052528e-02  1.7103964032655929e-02  3.1837291068543432e-02  2.2825808869831311e-02  3.6280717086953518e-02  6.7330548314428729e-04  6.7176961532923159e-04  3.2685598364858850e-04  2.3310559098988816e-04  2.7617613448908647e-04  9.7937074339031721e-04  2.4413559269771150e-04  1.3702318413716651e-04  2.9729481223546829e-02  2.7310477329271395e-02  6.5108691628060497e-03  3.4242575984914439e-02  3.1075196945386740e-02  4.1276772278481734e-02  3.4959785509909830e-02  1.7376514039724532e-02  5.7072777235453495e-02  3.5172090445430716e-02  3.4811071014419007e-02  3.4082567944138956e-02  6.0537186684325867e-03  3.3469778371698337e-02  1.0727191434727958e-04  1.9930726026764762e-04  1.3564375244344226e-04  3.1237324477333280e-04  2.9221689694485973e-04  2.0562142707529591e-04  3.7267454761925480e-02  2.3926756486564071e-04  1.7701867292688170e-05  1.3770866373716301e-05  3.1381603363157450e-02  2.5179794103265294e-02  3.3656864550803890e-02  5.6902295661638465e-02  3.1844310655935633e-02  4.8532608257903988e-02  3.0468028882382871e-03  8.3604183072317302e-04  2.5176730112658054e-02  1.3303134236891689e-04  2.4509242643792005e-03  6.5278276200764077e-03  1.2474912947822920e-02  4.2032422717240163e-04  4.4594898102351113e-03  2.9794180971754087e-02  2.0591706534340226e-02  2.0279543305436316e-02  1.1548452800046023e-02  1.9838235915226696e-02  3.9450648133356379e-02  9.8531526369947317e-03  4.1231715330991518e-03  3.7175607892092240e-02  7.0573559551805236e-03  7.6609540916081501e-03  2.0510380325420796e-04  2.8421790621366413e-04  3.0290317853395415e-04  1.2559565986480696e-03  2.7027167757932492e-02  1.1107303694256959e-03  5.0383247637310259e-02  9.4881148007857005e-03  3.0039247645510279e-02  3.3666319805804687e-02  3.5379634512097913e-02  2.9364069743462312e-02  1.0231622077908203e-03  1.4961300120751966e-03  1.6960446876049880e-03  3.4430667078338283e-03  2.9336491790578462e-03  3.5812716143391622e-04  2.1931657994667905e-03  9.9838045626458069e-04  1.3480280321279565e-04  1.9319393188284764e-04  1.3107805138748854e-05  5.1436179357277151e-02  3.6011548913710993e-02  7.6659599846298672e-03  3.1102578064336306e-02  2.8207045618782497e-02  3.5737006786833051e-04  4.1222329530857200e-04  2.4942548629961300e-04  1.2387842359449820e-03  7.1384500735441813e-04  3.3775320599643929e-02  3.7017897849206387e-02  1.0111174763271296e-02  3.5968264317779580e-02  2.2101504772943769e-02  3.6163714532219941e-02  2.0930451747415271e-02  5.3571598749018220e-02  4.8471358721125533e-02  2.0875055410012087e-02  3.0340102943284632e-02  3.4255463544099585e-02  3.6379482358611381e-02  3.1873331792073565e-03  3.8150388868773984e-02  1.9265123843075613e-04  3.9667533596228748e-03  4.1300248994265876e-02  3.9041258243256077e-02  3.4513671762141852e-02  4.6001879907438599e-02  1.9759718766776607e-02  1.0826036669894266e-02  3.4964937173675265e-04  2.1654062764885372e-04  2.2258971552285817e-02  2.7957784195329391e-02  2.6759955376563175e-02  3.1268050828971605e-02  1.3423573270012515e-02  3.1379163390997555e-02  2.4583516058856031e-02  2.8311761881142785e-02  3.5225491525626575e-02  2.7796150443332212e-04  5.0147201510159119e-04  2.4396916209281334e-04  6.7744894306638571e-04  9.2203005830991636e-04  1.6102646867536179e-05  2.9939754172618037e-02  3.1176685387874065e-02  2.7503527069058141e-02  2.1993619475568691e-02  1.6409420710042255e-04  1.8198504106491231e-04  2.3590960398353709e-04  1.8135173540406149e-04  2.7515224375585748e-02  3.0198854026024180e-02  2.3200309706640495e-02  2.8255571494130830e-02  3.2920614379771146e-02  9.4563509424192346e-05  9.9507319627599108e-05  2.8723143574177419e-04  5.0834931633319982e-04  9.6971864727327176e-03  3.5455953783382919e-02  3.6305893005965484e-02  2.2490981423308170e-02  1.5785832037527999e-03  1.0281279975827450e-04  2.4934383175133866e-04  3.2959515543172543e-02  3.7631903960828599e-02  3.8935343111331983e-02  3.5747801379119030e-02  8.6308539695810468e-02  3.9554887173375360e-05  2.0081341944930782e-04  3.4939478818039334e-02  3.0335051060705467e-02  1.6919593639403322e-04  4.4421965850252918e-04  2.6343539352181958e-04  2.8613367231953451e-04  1.7466433694594181e-02  1.5106463994946952e-02  2.3013769172634726e-02  2.4328228920722006e-02  1.6570105079019064e-02  1.9071120705775878e-04  2.2938084084401012e-03  2.8283570948157792e-04  2.2909862504082106e-04  3.2329367332425737e-02  3.8035467875375026e-02  3.9298684651797172e-02  4.1969022325692724e-02  3.2197442793309092e-02  1.5835436136359887e-02  1.6704275089418627e-04  5.4058408252222309e-04  7.8131339648499854e-04  3.6937986802765929e-02  7.9643113698928576e-03  4.1200376633338757e-03  1.0546024445658810e-02  4.3347324720910421e-02  2.3566703197565389e-03  8.7943697775317770e-02  4.4990752077785721e-03  2.8565048469644812e-02  2.1341011556265692e-04  4.1013407774632645e-04  4.4878203426384870e-03  3.3363306767733060e-02  3.6917291575211210e-02  1.5633149816870095e-02  3.0567940215018446e-04  1.3430640431640842e-03  9.0323844696096490e-03  7.6361281472194691e-03  3.3422760289294445e-02  2.7028109864745572e-02  1.9009201235443550e-02  2.5892670438462387e-02  3.1154845880612111e-02  3.8257637788450163e-02  7.4397020163170565e-03  3.1580590304894726e-02  2.5007552530227819e-02  2.8872761177879132e-02  2.9692183636022895e-02  2.3117966615447821e-02  1.5324789225958405e-03  4.3505432941674083e-04  1.5493251028451018e-03  1.4113737166562783e-04  3.2154121616560581e-02  3.3738667806387651e-02  3.5016315572317776e-02  8.6107709337281344e-05  4.3953549408930440e-02  4.0593940523110876e-02  3.1398782344025371e-02  2.4146610045511559e-02  3.4664260501145960e-02  1.3543984112675532e-02  2.6880250202058299e-02  3.2789319609200063e-02  2.1506498978485864e-02  3.5081484159429063e-02  3.1538789779192141e-05  3.7415232986045752e-02  3.4144626032989990e-02  5.5191399886754026e-02  7.3809773319456751e-04  3.7637550436387023e-02  3.9220073304617270e-02  3.7773352370099385e-02  3.6161597053862717e-02  1.7378033510210666e-03  6.2359730479862527e-03  8.4402434419031500e-04  1.9770712846469110e-04  3.6329105720144458e-02  1.5185446015332542e-04  3.3374943903288654e-04  2.6256777039729141e-05  1.0231895241161497e-02  7.3271093850445384e-05  3.5153255505572113e-02  4.0426610648804468e-03  3.5836237447416049e-02  1.9830729771126774e-03  3.5549912974226501e-02  3.3802165033213240e-02  9.6021282439563253e-03  5.1647467039120419e-04  3.5780218672384116e-02  4.3995788948441472e-02  2.8780854706635675e-04  2.4630057635812293e-04  1.7935167375963335e-02  2.5503011183863639e-02  6.9303631746917569e-04  5.0783382688977877e-03  7.3451843242679801e-04  5.5767514691163389e-04  2.1532066760881786e-04  3.3617274370731209e-03  3.5112296367452459e-02  1.4359074439620296e-04  2.4603153877708703e-04  5.6652546586895541e-03  5.7073121394870651e-04  2.4835137873813640e-04  2.3927328772108784e-03  1.7191796684371346e-04  4.8120848937576973e-04  5.6503694821953402e-04  4.9238874537366802e-04  2.3533858267618492e-04  2.8330744191911388e-04  6.4673727011507008e-05  3.5652164789686545e-02  2.9592569038095040e-02  2.4462644969164719e-02  3.4328969604857602e-02  3.1205807468126692e-02  4.2240203973475825e-02  3.1419318664614823e-02  2.0029611049322157e-02  2.6406731222188878e-02  3.1681355510894189e-02  3.5667434581596331e-02  1.5015190199944538e-04  3.5408339882093312e-02  9.3142622020833954e-02  7.3760852351242943e-03  1.0981888778599918e-02  6.3428890144786069e-04  5.2464717161862864e-04  2.9121003584066600e-02  3.1270712330079629e-02  4.9807744192127891e-02  2.9172301038985163e-02  1.5658145415676155e-04  2.4913931202193731e-02  2.1625774887991927e-02  3.0366553775542093e-02  2.6637731221860771e-02  3.6084442418798393e-02  4.2422750276147276e-03  7.6906281059769795e-04  3.0065819444951588e-04  6.9426756517200117e-05  2.8329516549923925e-02  3.5518438871204809e-02  3.5386143088244650e-02  3.2533206564573404e-02  2.5444907297308344e-02  3.3799801758914776e-02  2.0327559128687826e-02  2.9340206525422560e-02  3.0021374577128127e-02  3.9171979868519190e-02  1.1995103626972888e-04  5.4560463560101831e-04  9.3924999139640222e-04  1.3527454523589737e-02  1.3906392807821639e-04  3.1181855310121992e-02  9.0129954825301749e-03  9.8065062161206210e-03  3.5844496964320342e-02  6.3367931220392392e-03  2.7123574822417867e-02  1.4174303666749676e-03  3.2712431962675084e-03  3.6591051899055095e-04  1.3459526875220977e-02  3.1920154064812439e-02  2.5402746302434706e-02  1.5829001287496151e-02  3.4039535850444651e-03  6.0837422190392347e-05  1.5244000022734646e-04  2.8375256454073544e-02  4.5395454562027768e-03  1.0849869221149941e-01  1.8661802848239883e-02  1.7989817222602327e-02  1.1197940799204964e-02  1.5793323106387790e-04  2.4505249913154507e-04  4.0413577633006417e-02  1.4909012750801833e-04  1.3074826790585047e-03  3.1929357881603823e-02  5.2887646793215798e-05  1.0348494437631805e-03  8.7291170695577791e-05  1.0072498926576802e-03  3.2061603015187527e-04  3.3999884185093851e-02  1.4265675014568390e-02  3.1815286588222379e-02  4.1842714789642819e-02  3.3777071759006960e-04  3.7192141190362737e-02  3.6334383199452820e-02  3.6246333202251284e-02  1.7329998880322693e-04  2.8753257395835367e-04  1.5326289378978926e-04  3.0009018260381302e-02  3.8572627231793437e-02  3.2258225495830954e-02  2.9568901145593362e-02  1.3082969837614186e-02  2.5440607051121877e-03  3.9434382040308559e-02  1.0897981703896372e-03  3.5954892761130730e-02  4.2907396377644076e-02  4.2556096362949609e-02  5.1808261781800353e-03  1.7850727195314869e-02  3.0392039854310885e-02  1.6297257028166912e-02  4.3319574453797125e-04  3.6264664099659963e-02  1.2385482249800339e-04  2.6613144337766594e-02  2.4138968870188151e-02  5.7156371429560100e-02  3.6081955451055706e-02  3.8589914653274222e-02  3.6904598392796452e-02  3.9426330947644500e-02  2.7900070831248184e-03  2.3195835599597849e-02  4.2290259449781424e-02  1.5915969373871464e-02  5.6816205264599347e-03  2.7569206300807739e-02  3.5874195539556890e-02  1.9837374127099502e-02  8.9398132233098060e-03  2.3776018256672492e-02  2.0068751818541270e-04  7.6889332701496793e-04  3.4123352114653942e-02  4.2079791717420302e-02  2.1632304902398478e-03  1.8050409638864235e-04  2.5621000536202868e-04  1.1743102508296669e-02  5.2051462954927609e-02  7.6342828348006037e-03  1.4240983221822337e-02  3.5432159848184923e-02  2.9119042201023359e-02  2.1969276864238188e-04  6.4810741824597673e-02  1.5163202574096689e-03  1.1834929708932475e-03  2.9080453082114828e-02  3.0302607646845271e-02  3.5946979734057048e-02  2.2699839066304812e-04  1.1147371501580375e-03  3.0123690132463068e-04  2.5146931172660480e-04  4.0271523175482122e-04  2.4903887785517422e-04  1.2796514041056353e-04  6.3660510861363206e-02  2.9395358486222427e-02  3.4964427123696788e-02  3.3478460201659455e-02  1.1614212706618334e-02  2.6589210269059336e-02  3.5000071026005282e-02  5.2025201687881661e-03  1.2844773267331610e-02  5.1309266213083370e-02  4.0378081652853040e-03  4.3503912221163473e-03  1.4251385003799679e-04  1.9979366085126494e-04  6.9310697312009630e-04  5.0106158637026139e-04  3.2854543975281800e-02  1.4817519234615065e-04  3.5402963714353357e-02  3.6588734127533259e-02  3.6557398609685370e-02  3.3661167304922038e-02  3.5463150816233267e-02  3.2839756615151448e-02  3.5620647192103824e-02  3.8356719366017582e-02  3.3901413061985457e-02  3.1898172149385909e-02  2.9134058076783868e-02  3.4874254957414516e-02  2.1568954448508003e-02  1.2714319873596304e-04  1.1493198172847774e-03  1.2389016035524157e-03  7.2355723835225460e-04  4.0568669245154725e-02  5.3243377200853730e-04  9.5320522502113979e-04  2.8572069516097522e-04  6.9633915119088395e-04  1.8752148615166505e-04  1.6219081200467766e-03  3.1972702380494628e-03  2.6619865720593403e-03  4.2611337968190997e-03  2.2295585201883169e-03  3.6871187888360676e-02  1.5160410598156100e-03  1.2053177119682446e-02  3.5200622125957932e-02  6.3721796268985335e-03  2.4115195318744669e-02  2.7325438949159630e-03  3.4272467017682516e-02  9.5381350526543135e-04  2.0081946685510441e-04  2.3469053432188523e-04  2.9249988824995968e-02  5.1521563758392189e-03  2.6524381112648945e-02  4.3813174065045535e-02  4.7166273796870065e-02  9.3212909993407572e-03  3.0314884680295060e-02  2.7315634256052447e-04  1.0493759462401075e-03  3.4800577210345775e-03  3.4297686651739191e-03  3.6686340948174620e-02  1.1775371907863997e-02  3.3321390838463638e-02  2.4090878483467030e-02  2.4458918798736261e-02  4.0720511649463012e-02  3.6537066873885159e-02  3.9558089605663725e-02  5.3907862738541545e-03  1.3915774079946598e-04  2.3468064845956523e-04  2.0821536421791734e-04  2.7945578415431497e-02  2.6018054543034682e-02  3.6195401140736112e-02  1.8013945406031046e-02  3.1605391639017169e-02  1.3132655716612207e-02  3.5194231382852985e-02  3.2879009354339891e-02  2.3349717799593866e-02  6.3724257853198336e-03  1.6949202032893077e-02  2.6551628283435304e-02  3.0338171643038835e-02  3.2056700638052354e-02  3.2848330032959783e-02  1.4185198740093540e-02  1.2926566128102010e-01  1.5987628863942070e-03  5.9225193994695839e-04  6.5464562850984598e-04  7.1056487701994962e-03  1.5838364172525492e-04  3.2833579853843081e-02  1.9552565465892156e-02  7.0533181929565011e-04  2.9389381068512768e-04  2.1543301864272119e-04  4.9519973231697149e-02  4.1823972851042661e-02  4.3684057330982427e-02  5.0379393721788120e-04  3.4698186772362299e-04  3.5865999338486996e-04  3.3074649590892876e-04  4.6296431700330746e-03  3.2753645252689416e-02  2.9799533389760179e-02  3.1279229119480445e-02  8.5606601689853232e-04  3.4840857341995074e-02  2.2993289194036316e-03  3.4218933247135985e-02  3.2597976061640443e-02  2.7129490255542888e-02  2.8296601402178112e-03  4.5337729969160162e-02  2.9458178353610406e-02  1.9426994090403695e-03  4.4717775538628042e-06  4.6424866559845280e-06  3.3141127714390515e-06  2.5276173130366395e-04  2.2798778532321434e-03  3.0042037186307801e-04  1.6970528006038889e-04  3.2256701409050881e-06  1.3100384472135893e-02  6.7799479276611133e-02  8.4461692819770978e-02  3.2704120035677971e-02  5.1251797116161216e-04  2.0948068880705686e-02  3.0067231510320286e-02  2.5834953667267471e-02  2.7015972389880898e-02  3.5962307916400114e-02  3.5331329109664120e-02  3.8170085404714414e-02  3.5909149915153718e-02  1.9622516842623946e-02  3.5783167007474199e-02  2.8593366285156449e-02  2.5996525888823639e-02  3.8914824297516670e-04  2.1291855746213883e-03  4.4964409041240855e-03  2.1711998151380495e-03  1.9014316339153788e-03  1.1574246887402647e-03  4.1764093845094503e-02  1.4242520053274707e-02  1.6225190577135533e-04  1.7154526188726431e-04  3.1569871944306816e-04  3.8395725074461484e-02  1.6777749245479163e-04  1.2748410055962297e-04  2.7902272289648353e-04  1.8653300265543630e-02  2.3661415149669927e-02  2.2383769486581079e-02  1.4606060858439140e-04  3.3433225055793950e-02  3.7212598020540425e-05  5.7214534646075369e-03  2.4037597783738845e-02  1.2318423757688018e-04  2.7696621353337785e-04  3.5851130595639609e-02  2.6194777034504946e-02  2.4882898660653349e-02  2.9551734119482108e-02  3.4772838370856536e-04  5.5259480733475699e-04  3.7823247357004521e-02  3.7727752312701306e-02  3.4216627962847392e-02  2.9075642216614461e-02  3.8430001972410192e-02  4.1839199473883558e-02  4.6070437096691230e-05  4.4256530291207909e-05  2.1275641364035931e-02  2.3273595961936247e-02  2.9748895423854789e-02  1.9385896496243591e-02  4.3617466632300669e-03  8.3981687692607516e-03  1.4963410879250258e-02  2.0674511380048929e-02  5.7384021480249431e-04  2.1234643670344978e-02  1.5474010069017541e-04  1.1942883822659320e-02  3.4521222366214251e-02  8.9632268431078530e-04  4.1763887892722493e-05  1.7931884738465854e-04  3.7409805604376049e-05  1.5079919099390287e-04  2.8923562086807661e-04  4.6995190181502167e-04  7.5043379213272953e-04  8.1399353095376722e-04  9.5322783189085592e-03  3.5146120294313639e-02  3.6833898799757878e-04  1.9397326574287178e-04  3.0572727736412456e-02  3.4329425401391674e-02  2.6690673362974308e-04  2.7963726575568228e-04  4.3164569515575753e-04  2.8395504267499669e-04  2.6261444917962312e-02  2.2275849996361907e-02  3.0323321528381728e-02  2.9032077487044516e-02  3.9696111649038364e-02  2.5257040407877070e-02  2.3087503807340096e-02  3.5958539653571750e-02  2.9785573110179802e-02  2.8849885181342485e-02  1.5003653673148407e-02  3.1847864437798898e-02  2.1869019778658117e-02  2.5318902724167956e-02  4.9701407018098338e-03  3.1225693646546936e-02  2.3843752528199084e-03  2.7751692366491748e-02  8.4063268426196099e-03  3.5552078187084765e-02  2.3030217512009767e-04  2.7857148579405539e-02  3.9827545830918819e-02  3.7954816755460412e-02  9.3975423786752648e-03  6.8996918592147622e-03  1.4896134303302719e-04  1.9137734817818467e-04  4.5416503835013847e-02  3.0970290313889377e-02  3.1773738906508524e-02  3.9361262258343267e-04  3.9970540451440821e-02  3.5090172297917173e-02  2.9598012524578832e-02  2.4304258852066209e-04  2.2162819843868169e-04  3.9315366917693683e-04  1.5489851110468908e-04  3.7874572035099619e-04  7.6438643848166245e-05  2.8336931664583131e-02  3.1129253328279923e-02  2.7136241142935665e-02  3.7733348295463616e-05  2.6019400512741205e-04  4.6057836235503612e-04  3.8390385652321191e-05  1.2211734246085059e-04  1.1735697160079334e-04  3.9931761066106942e-02  1.1389219277244719e-03  1.1335597820572423e-04  2.4423747426658023e-04  2.2494849521460176e-04  1.7483394064161782e-04  3.6053511374970287e-02  3.6317792772073663e-02  3.5728280928432742e-02  2.4192758622999525e-02  2.1128818618003597e-02  3.5649680280314261e-02  5.3200428019225556e-04  9.1569162367115438e-03  6.6403565232056637e-04  2.7155660453338067e-02  2.2210719386857061e-02  8.3575451509492783e-03  3.5183144008642357e-02  1.3839530253320433e-02  6.8381438356174013e-03  3.3124220640126045e-02  2.8787425281437951e-02  2.2979105113834461e-04  1.8676036829896100e-04  3.5845138600392595e-02  1.3740061387766621e-03  4.1671311404708111e-04  3.5303646326511964e-02  3.8228141601262929e-02  3.6047884268538138e-02  3.0169007432494708e-02  8.5084296580690319e-05  3.5419257204333594e-02  2.7547768054089553e-02  2.0894524835876851e-02  1.709084836