<?xml version="1.0"?>
<VTKFile type="UnstructuredGrid"  version="0.1"  >
<UnstructuredGrid>
<Piece  NumberOfPoints="1515" NumberOfCells="2858">
<Points>
<DataArray  type="Float64"  NumberOfComponents="3"  format="ascii">-0.5 -0.0001 0  -0.5 -0.5 0  0.5 -0.5 0  0.5 0.5 0  -0.5 0.5 0  -0.5 0.0001 0  0 0.0001 0  0 -0.0001 0  0 -0.5 0  0 0.5 0  0.5 0 0  -0.25 0.0001 0  -0.25 0.5 0  -0.25 -0.0001 0  0.25 0.5 0  0.25 -0.5 0  0.2500374937493749 0.1875187468746875 0  0.5 -0.25 0  0.25002499 -0.125 0  -0.125 -0.25005 0  -0.125 0.25005 0  0.5 0.25 0  -0.25 -0.5 0  -0.5 -0.25005 0  -0.5 0.25005 0  0.125 -0.3124916691673332 0  0.125 0.3437443727884549 0  0.3187498332767468 -0.3187498332767468 0  -0.3125 -0.3125124974994999 0  -0.3125 0.1875875025005001 0  0.04436566007004419 0.1785185187387698 0  0.3437706224620182 0.3437706224620182 0  -0.359407810625422 0.3594296915637348 0  -0.359407810625422 -0.1406703084362652 0  0.08209948494863104 -0.1484533219292508 0  0.3281296842191969 0.03125624875007487 0  0.1612337437527647 0.0454945319044936 0  0.5 -0.125 0  0.3736573308633327 -0.1902100573489204 0  -0.05632383965282133 -0.1281636979131719 0  -0.1875249975 -0.37501249874975 0  -0.02161822989173764 0.354580025951059 0  -0.2160757009003203 -0.1393657085918785 0  -0.01783801249259284 -0.3526895391541273 0  -0.2160757009003203 0.3607342914081215 0  -0.125 0.0001 0  -0.125 -0.0001 0  -0.1875249975 0.1250875012502501 0  0.5 0.125 0  -0.375 0.0001 0  -0.375 -0.0001 0  -0.5 0.125075 0  -0.375 -0.5 0  -0.5 -0.375025 0  0.3828324180271084 0.1875 0  -0.125 0.5 0  0.5 -0.375 0  0.375 -0.5 0  -0.125 -0.5 0  -0.375 0.5 0  0.125 0.5 0  0.125 -0.5 0  0.5 0.375 0  0.375 0.5 0  -0.5 -0.125075 0  -0.5 0.375025 0  -0.06200365993838185 0.1102431244359298 0  0.3921286730834987 -0.07100003899567721 0  -0.001178265146973292 -0.2342725669761844 0  0.219639755882476 -0.3848202826230195 0  0.1764909845376315 -0.2113963654501196 0  0.2343901841136658 0.3031458088961128 0  0.1561195030924493 -0.06553680147678266 0  0.1485501800845649 0.1522005597879607 0  0.07430925316253632 -0.4062458345836666 0  0.1875 0.4218721863942274 0  0.0625 0.4218721863942275 0  0.2776974776570886 -0.2252166395728846 0  -0.2310132101974821 0.2556304703469177 0  -0.2310132101974821 -0.2444695296530824 0  -0.3906265628125469 -0.3906296862497968 0  -0.3906265628125469 0.1094703137502032 0  -0.2812687506255001 0.09383750062512503 0  -0.2812687506255002 -0.406262499374875 0  -0.4101472686723712 0.2071199254696213 0  -0.4101472686723712 -0.2929800745303787 0  0.2470275540227946 -0.02585328932041452 0  0.4068247800249947 0.09140209453477602 0  -0.1176406316218027 0.3957739114529177 0  0.4080574838155757 -0.2809016730332933 0  0.3125 -0.4219344228213859 0  0.4088486496673779 -0.4088486496673779 0  0.1167033063099591 0.2455046542815969 0  -0.02381261413756171 0.2533622281544139 0  0.02735543470987723 0.08802303626707711 0  0.3144655814479235 0.2551097933485553 0  0.2801337679615206 0.4118308473117793 0  0.4101587089138863 0.2773478512831281 0  -0.09689860681079282 -0.4078094624324944 0  0.213976519574722 -0.2941495474331945 0  -0.318965898965983 0.2781458178971435 0  -0.3125 0.4357826538464097 0  -0.318965898965983 -0.2219541821028565 0  -0.3125 -0.06431734615359029 0  -0.4357704230694522 0.3125375 0  -0.4357704230694522 -0.1875625 0  0.4114732283419867 0.4114732283419867 0  -0.4234646583494089 0.4234743507195528 0  -0.4375 -0.0001 0  -0.4375 0.0001 0  0.3164258563077259 0.1230517971377134 0  0.04931026741366369 0.300666438050672 0  0.2304865209107167 0.1009680687096636 0  0.02061587644269779 -0.08558486663800556 0  0.09390691211100699 -0.2329943594667239 0  0.08896107880644889 -0.006809950500825342 0  -0.1875 0.5 0  -0.1392552316473008 -0.09019077220175532 0  0.4170297537744737 0.008612617817243748 0  -0.4243694331702185 -0.08478222235936261 0  -0.1416933693607303 -0.1709733993077484 0  -0.09511425322415427 -0.3261090638251909 0  -0.04508670308176045 0.4323857419859515 0  -0.4375 -0.5 0  -0.1187189609291948 0.1687838380963837 0  0.3117722643778845 -0.07351457101062323 0  0.1513445599038777 -0.4251753449096755 0  0.04472177709904164 -0.3011105058468416 0  0.001740722226491711 -0.4250539693950984 0  -0.03075788851996441 0.178560406845558 0  0.1766313586052732 -0.1370243862559475 0  -0.0761550533906552 0.3051296889632589 0  -0.1485469487091727 0.3268133048125818 0  0.1930083860569673 0.2386735170085497 0  -0.0625 -0.0001 0  -0.0625 0.0001 0  -0.2878141094770303 -0.1320687430427478 0  -0.2875995151119595 0.3444544772933048 0  -0.24076159142329 -0.07161431170272106 0  -0.24076159142329 0.428485688297279 0  0.4263700347703773 -0.1373417231816959 0  -0.1856875708107399 0.19821478019016 0  0.09322297310683496 0.06338537237428626 0  -0.07466041728962823 -0.1981228067401687 0  0.009513123991135172 -0.1613319531958586 0  0.3092144166352111 -0.1625850961304104 0  0.3437404121717113 -0.2534277690952264 0  0.4379744025071972 -0.2176839612869874 0  -0.1297061011176702 0.07587858854060507 0  -0.1875 0.0001 0  -0.1875 -0.0001 0  -0.1875 -0.5 0  -0.1633110600051376 -0.3090045011162743 0  -0.21877499875025 0.06259999875025002 0  -0.21875 -0.4375124968750625 0  -0.25001874937525 -0.3437749968748749 0  -0.2500187493752501 0.1563250031251251 0  -0.5 -0.4375125 0  -0.5 0.06258749999999999 0  0.08904799960830578 -0.08015900599685086 0  0.4108334826406196 0.3444103681633853 0  -0.0625 -0.5 0  0.4414087098136942 0.2187640586098291 0  0.4382361660678968 0.150288432919798 0  -0.3125 0.0001 0  -0.3125 -0.0001 0  -0.3416336343815852 0.06187820768002609 0  -0.3125 -0.5 0  -0.3416336343815852 -0.4382217923199739 0  0.3168016282179152 0.1891009224226147 0  0.4368875345166075 -0.3446993355472595 0  -0.05975660640830217 -0.2683150418715617 0  0.3458703977041003 0.4362216268226822 0  0.5 0.0625 0  0.5 0.3125 0  0.5 -0.0625 0  0.5 -0.4375 0  0.4375 -0.5 0  -0.04197328552084911 -0.06329083152961786 0  0.2257906778195176 0.03586621568734723 0  0.2286857476565217 0.36951555023185 0  0.3548787707540964 -0.3727197121900284 0  -0.1790795964032311 0.4125871598709088 0  -0.0278086253378118 0.05696913583040467 0  -0.2640893654172825 -0.190631969293494 0  -0.1533594275423699 -0.440977335357388 0  0.5 0.4375 0  0.4375 0.5 0  0.1704903431553385 0.2986434949108457 0  0.08721475273820462 0.1287687476127682 0  0.1875 -0.5 0  -0.0625 0.5 0  -0.4375 0.5 0  -0.3125 0.5 0  0.0625 0.5 0  0.125 0.4359369935185367 0  0.3125 -0.5 0  0.1875 0.5 0  0.0625 -0.5 0  0.5 -0.3125 0  0.5 -0.1875 0  0.5 0.1875 0  0.3125 0.5 0  -0.5 -0.1875625 0  -0.5 -0.3125375 0  -0.5 0.1875625 0  -0.5 0.3125375 0  -0.5 0.4375125 0  -0.5 -0.06258749999999999 0  0.3624254104606854 -0.1274336378120225 0  0.1857642697873453 -0.01126882530927889 0  0.03669184495608396 0.2400031982312926 0  0.04068015303098439 0.3629261100764373 0  -0.3851162339112683 0.269026866774594 0  -0.3758332300807991 -0.1995452526923809 0  -0.446144648587372 -0.34378125 0  -0.446144648587372 0.15631875 0  0.3504998016039519 -0.02589861883840036 0  0.2836777321248879 0.07223256202683162 0  0.21875 -0.4466460035652602 0  0.1774501368185094 -0.3419431906700547 0  0.2592287652038449 -0.3368353496836486 0  -0.4486577479325732 0.09383124999999998 0  -0.40625 0.05134972627205531 0  -0.4486577479325732 -0.40626875 0  -0.40625 -0.4487502737279447 0  -0.07907884158578801 0.2127234227389962 0  0.2826672956396865 0.340725212476292 0  0.2552094419670018 0.2470909165729528 0  0.1235030570827048 -0.3722630563328095 0  -0.1765523267242401 -0.2196325740312749 0  -0.3653881707177284 -0.256399556620603 0  -0.3667881364584723 -0.08355066867835562 0  0.1448027058369495 -0.2589171712236736 0  0.2204190758351349 -0.1742931558527921 0  0.125595190811689 -0.1854735536931699 0  0.2751135960266025 -0.2821263988783404 0  0.04714559827497029 0.03095590907283807 0  -0.3694518448121097 0.4428768192088114 0  -0.4163493718954405 0.3665341424253254 0  0.2065677312659464 -0.0897482605048449 0  0.04596501084766122 -0.2039288085874983 0  -0.3678348759016452 -0.3352975447880205 0  -0.3331464162279717 -0.3812640910313448 0  -0.3678348759016452 0.1648024552119795 0  -0.3331464162279716 0.1188359089686553 0  0.006928352547084439 0.4089314103168539 0  -0.008754979675293741 -0.28865535545956 0  0.454824000777391 -0.03125 0  0.4453084397952883 -0.08555947234219879 0  0.0400389030608287 -0.3591593324500765 0  -0.3565047668221014 0.2214443888382642 0  -0.1767790649240408 0.276160039146296 0  -0.4407450517553578 0.2555055370068006 0  -0.4424041217249974 -0.2449977221857678 0  -0.0101841459589043 0.1278467808234489 0  0.1946666826231925 0.1831558471035277 0  0.1023041143695485 0.1885027832887665 0  0.1383943178482503 0.09688656085697314 0  0.1738321521953076 0.3687430643819201 0  0.09375 -0.4563154147117792 0  -0.2831024225358643 0.2351964925231401 0  -0.2621637468582121 -0.2899792135739121 0  -0.2423367266168128 0.3108531660207947 0  0.3858515397252176 -0.3293494555229365 0  -0.09921103529049136 0.4494480844437962 0  -0.1387217209722605 -0.3554699308920083 0  -0.06600083182100508 0.3836351847814501 0  0.1309954671830858 -0.1114321286398948 0  -0.09375 -0.04518048647049126 0  0.04208778762923838 -0.03517827620526504 0  -0.08165643227347709 0.05080163226699017 0  0.2987692351119484 -0.01319048554596328 0  -0.4136288823076366 -0.1379960981994732 0  -0.1856470434007142 -0.05707095126749213 0  -0.15625 0.4588983004055426 0  0.301492156088943 -0.3696020442065089 0  0.2261014656445051 -0.2255765688706129 0  -0.0254711816102797 0.3040308714413081 0  -0.2359814035109398 0.2051098885755096 0  -0.2142660728025848 -0.3074346058732286 0  -0.0444842016587006 -0.3987296650352232 0  -0.06299926340697812 -0.4476735265309565 0  0.2370119789310965 0.4463270361850639 0  0.1025408210352734 0.3898406831534957 0  0.02523186154102609 0.456121755814222 0  0.2703582881149408 -0.4522472093634566 0  0.34375 -0.460967211410693 0  0.1519529867048281 0.2096636028655708 0  -0.1028373102819492 0.3477334553616848 0  0.2543545123482477 -0.07525044338081299 0  0.4586232703312498 
[...]
<PointData  Scalars="f_184501"> 
<DataArray  type="Float64"  Name="f_184501"  format="ascii">1.7063999643260490e-06  2.3233815955893883e-04  1.1914599573147484e-01  5.0216726290932059e-02  1.0262672716991475e-03  3.6884876745868311e-07  4.4829827390759891e-01  4.4926803014491856e-01  1.2047462144866244e-02  1.8806844633465304e-02  2.4475447765867176e-02  9.9395924976131470e-04  1.3136999514423576e-03  1.1032532630622794e-03  3.9825233060472184e-02  2.6962307464471997e-02  4.3047157139495661e-02  3.2417506618902386e-02  4.1462282674119590e-02  4.8791205275754302e-03  5.6946647958791181e-03  3.8405555581810129e-02  2.3574091870383175e-03  5.2045539920406777e-04  5.3924257280155705e-04  3.1735844568509780e-02  3.5342869226187984e-02  4.2770015775929530e-02  2.8666682247647488e-04  2.1987868326404228e-04  4.1155310735882807e-02  4.2443263574162803e-02  6.8564670809967892e-05  3.1285859605290555e-04  5.0760537382953920e-02  3.3413245164015969e-02  4.2106014859295361e-02  2.6199859636228544e-02  3.8055176633848123e-02  1.5971687710982164e-02  2.7788007673427151e-03  1.7636526365520020e-02  2.2191646577804884e-04  1.3805389445656728e-02  1.7988565979675168e-03  2.8434341537832515e-03  2.8736310120713784e-03  3.1820616238424924e-04  2.9138954377974913e-02  1.2076262566082242e-04  1.3613812281077972e-04  9.7698634683530597e-05  8.0756294722542608e-04  4.6597686843045407e-04  3.7571417009544666e-02  7.1748825150062083e-03  4.3475681539030038e-02  3.9563319490169203e-02  5.9393847167764861e-03  4.9158036588844590e-05  3.1749539401561805e-02  1.9140514795609860e-02  4.7018711751272202e-02  4.3719928505208797e-02  1.1519198177786708e-04  9.7651961780631567e-04  1.5300158236648360e-02  3.1931264792057538e-02  2.1958050657102164e-02  3.2618461563227723e-02  4.4820218251297034e-02  4.2319138410224742e-02  4.5334677539308726e-02  4.8935065101368219e-02  1.9851708045718949e-02  3.7387574130297418e-02  2.6461714346528692e-02  4.3325099102558280e-02  7.4086486532566088e-04  7.3651730250624847e-04  3.6491058219827437e-04  2.7586099782764967e-04  3.3534478182158773e-04  1.0866605591269983e-03  2.9349822602780167e-04  1.6436718526228629e-04  3.5421962788308045e-02  3.2318495918914683e-02  7.3987359580950252e-03  4.0729193404674811e-02  3.6880021857051484e-02  4.9246129420451278e-02  4.1150507320759394e-02  1.9854513889376410e-02  6.6662493210504922e-02  4.1905305633071752e-02  4.1211745510629741e-02  4.0608493074923181e-02  6.8985339887522078e-03  3.9695212443745097e-02  1.2761214810752983e-04  2.1501737207656015e-04  1.6142130314627875e-04  3.6823639699211082e-04  3.5241231993499438e-04  2.4299609908647046e-04  4.4480389824142097e-02  2.9277903069147276e-04  2.0274702503902793e-05  1.5882229654957274e-05  3.7356552889094397e-02  2.9192748252451408e-02  4.0301842498672094e-02  6.6175382067076696e-02  3.7352819056682439e-02  6.1213151662887710e-02  3.4399856946500068e-03  8.8923471703648664e-04  2.9712054450118524e-02  1.5464429822152818e-04  2.6771014378741366e-03  7.3976376886030664e-03  1.4306035010958030e-02  4.6506505379048261e-04  4.9252522562953432e-03  3.5403701237774803e-02  2.4064081601386088e-02  2.3464873517884371e-02  1.3302713670518945e-02  2.2483418537630889e-02  4.7464445654129522e-02  1.1203153606647214e-02  4.6443892720295019e-03  4.4190860587258553e-02  8.4455114251837469e-03  9.2118742527800383e-03  2.4950568226589609e-04  3.1177307650175984e-04  3.6552533022465226e-04  1.4019628534699682e-03  3.1998262771107892e-02  1.2134698881648151e-03  6.1691858260924333e-02  1.0628584080611124e-02  3.4421428755662967e-02  4.0157567605628899e-02  4.2162750525124332e-02  3.4847515545399360e-02  1.0928489218390612e-03  1.7618130563892269e-03  1.9795517790018790e-03  3.9065079743173369e-03  3.2835541846306568e-03  4.3386363188584821e-04  2.4683468592351329e-03  1.1050524174767652e-03  1.6152072918301612e-04  2.3167393673189212e-04  1.5138713911241836e-05  6.2635576138635990e-02  4.2952950149832338e-02  8.7999884643551046e-03  3.6964343869515214e-02  3.3422303679614747e-02  4.1681075764093576e-04  4.7661107228399552e-04  2.9469897970086159e-04  1.3834708330272261e-03  7.9022441630074514e-04  4.0266079114582076e-02  4.4035507283998514e-02  1.1468330652956254e-02  4.2768093728143865e-02  2.6003465121885363e-02  4.3172249277393014e-02  2.4619970659706229e-02  6.3954215823712302e-02  5.8284286194382771e-02  2.2945601479169457e-02  3.6243549241941030e-02  4.0445020889230320e-02  4.3335315548592830e-02  3.5959937285051872e-03  4.2419987388906406e-02  2.1986928864302032e-04  4.5036589872274931e-03  4.9475340547677327e-02  4.6683057018658838e-02  4.0714053763247424e-02  5.4864981595649127e-02  2.3133577559228610e-02  1.2399493500399348e-02  4.2473290748797164e-04  2.3346284360871051e-04  2.5798182297682312e-02  3.2626138667748161e-02  3.1661645940264820e-02  3.6689526988971113e-02  1.5562279715920535e-02  3.7323631155540965e-02  2.9105081068300273e-02  3.3556413212564397e-02  4.1762791684520011e-02  3.2220960238299879e-04  5.9117340051056163e-04  2.8579064304797231e-04  8.0327758572431359e-04  1.1015818811709452e-03  1.8459192306709521e-05  3.5546668424614243e-02  3.7453816931286181e-02  3.1857185596902350e-02  2.5450900589694268e-02  2.0266284241618988e-04  2.2002814884994766e-04  2.8030562641810695e-04  2.1425338945280697e-04  3.2566387333664924e-02  3.5938786464687567e-02  2.7263213796335360e-02  3.3271093748666207e-02  3.9073106611283964e-02  1.1065470677371354e-04  1.1632470621261122e-04  3.3395047661714241e-04  5.6644032803879749e-04  1.0901127572948369e-02  4.2081202175233118e-02  4.3241439786154627e-02  2.6274062764564447e-02  1.7334312490915953e-03  1.2443290637994801e-04  2.9235152149882372e-04  3.8922234647244362e-02  4.5099892791423776e-02  4.6311501597016240e-02  4.2591951725681226e-02  1.1007750370950002e-01  4.8932386777906068e-05  2.4633730561113482e-04  4.1991547225317075e-02  3.5229986849329188e-02  1.8919238551700428e-04  4.8760973472232737e-04  3.1733517910546215e-04  3.4410730739785074e-04  2.0130586064972252e-02  1.7310283458542665e-02  2.7110001767586937e-02  2.8716118500852646e-02  1.9153819090134330e-02  2.3475803761692995e-04  2.5559181964335195e-03  3.3877168087763555e-04  2.7181861843085070e-04  3.6694154442726189e-02  4.5461256599076731e-02  4.6461533932272335e-02  5.0743393648146812e-02  3.7825982753878121e-02  1.8401547787060511e-02  1.9345232965898649e-04  5.9319322222605017e-04  8.6483123917051763e-04  4.3989964055351764e-02  9.0849749766854712e-03  4.6517931130186912e-03  1.2050457820697275e-02  5.2352795088406304e-02  2.5857280189018443e-03  1.1112553536874424e-01  4.8137900633533574e-03  3.3891228327560405e-02  2.5088967166487993e-04  4.9456420811887225e-04  5.0876352442914656e-03  3.9649087098841566e-02  4.4076543980447323e-02  1.7908254880728960e-02  3.3652827127745753e-04  1.4894524588272881e-03  1.0347090427076744e-02  8.7517948765488719e-03  3.9398718630277108e-02  3.1490816518708255e-02  2.1954120230411274e-02  3.0559748682320132e-02  3.7016166946549654e-02  4.5457497298147624e-02  8.4512479782785296e-03  3.7703610848549889e-02  2.9520044772560570e-02  3.4241296774120994e-02  3.5239255053651476e-02  2.7228057360633846e-02  1.7157330713864804e-03  5.1669524638750281e-04  1.7304082707121698e-03  1.7518626416245298e-04  3.7711692886732436e-02  4.0185396873708590e-02  4.1713986833655022e-02  9.9562045515422926e-05  5.2349182562302907e-02  4.8549760274608889e-02  3.7314908276507908e-02  2.7970765972332872e-02  4.1336155921915578e-02  1.5675047377158250e-02  3.1785856770917137e-02  3.8990935899727873e-02  2.5026402297304587e-02  4.2742522643428080e-02  3.6287520322261887e-05  4.4896367917539023e-02  4.0693103693952022e-02  6.6148854242541605e-02  8.1709108718257186e-04  4.4922851350249184e-02  4.6912593953585713e-02  4.5137564073114027e-02  4.3063699498170453e-02  1.9239423636649771e-03  6.8697909130692588e-03  1.0064790322280859e-03  2.3926497283622132e-04  4.3370668977154567e-02  1.6498959614901390e-04  3.7749391165603133e-04  3.0462750519995795e-05  1.1665418375437667e-02  9.2640466263513416e-05  4.1661009212338958e-02  4.4061029760445285e-03  4.2621959482939571e-02  2.2151736894329369e-03  4.2223270772355818e-02  4.0347470078241840e-02  1.0870524469297132e-02  5.6265631895876080e-04  4.3073929904969589e-02  5.1465010788897307e-02  3.4144415999901571e-04  2.9171439602117098e-04  2.0324626853917605e-02  2.9313074330285922e-02  7.3810562527210544e-04  5.5079014180173681e-03  8.6663296585200882e-04  6.1227957391988956e-04  2.6436414459790484e-04  3.7880579802201551e-03  4.1706338123682157e-02  1.6190954907706491e-04  2.7258512391720825e-04  6.4662257181173138e-03  6.8478912634400535e-04  2.8622386777746274e-04  2.6933254201590168e-03  2.0018555385626602e-04  5.7636828570591342e-04  6.2263285968422964e-04  5.7522467706562855e-04  2.7342603141397185e-04  3.3740873322165720e-04  8.2612497973688341e-05  4.2650254302202983e-02  3.4620168098972955e-02  2.8421282247593955e-02  4.0522477545537082e-02  3.6839109156646774e-02  5.1829639581346010e-02  3.7397553492408531e-02  2.3090998379945795e-02  3.1273711220102883e-02  3.7695018616266340e-02  4.2492549016682556e-02  1.8631498459587177e-04  4.2381121533937131e-02  1.0967262821978520e-01  8.4032455399506642e-03  1.2273597565136903e-02  7.6230415341771017e-04  6.3187381743827389e-04  3.4450963366225870e-02  3.4983062113542011e-02  5.8952466835471909e-02  3.4680744066859892e-02  1.8551348207652724e-04  2.9249253495231050e-02  2.4916710435623012e-02  3.5417204560473800e-02  3.0989566722132884e-02  4.2984394714738437e-02  4.8080802755982545e-03  9.0463758742750043e-04  3.3278816821459475e-04  8.0235734871446566e-05  3.3169578106232167e-02  4.2268311319968110e-02  4.2203199140517692e-02  3.8828300705545694e-02  3.0042197425302071e-02  3.9509777995734206e-02  2.3792139686759868e-02  3.4808100050207756e-02  3.5140282992904878e-02  4.6664834531094469e-02  1.3570063710432664e-04  6.4531127752484184e-04  1.0169626891770955e-03  1.5337391531642727e-02  1.7274885996470328e-04  3.6891611312724976e-02  1.0371439292455261e-02  1.1292858176184735e-02  4.2159944818999075e-02  7.1434969376295036e-03  3.2081297761152330e-02  1.5389074453794880e-03  3.6250516602960121e-03  4.2573573533493666e-04  1.5459021016801851e-02  3.8273520465245771e-02  2.9990851355500798e-02  1.8231189124729843e-02  3.7659524145236770e-03  6.4488957740933324e-05  1.8460918533633378e-04  3.3625488001418874e-02  5.1032971944307828e-03  1.3096918614672903e-01  2.1733194744835437e-02  2.0979655904273361e-02  1.2783427089894005e-02  1.8450821171880587e-04  2.9262847040058954e-04  4.8388264385063891e-02  1.7887883134818123e-04  1.4406447362575805e-03  3.7511364691836108e-02  5.8102537450142144e-05  1.1020483935488524e-03  9.8819767273420665e-05  1.1194883247028803e-03  3.8110669843964003e-04  4.0139650219855667e-02  1.6374842347678800e-02  3.7932512537369303e-02  5.0140656739140865e-02  3.6617506892911355e-04  4.4368472897682941e-02  4.3149334485649830e-02  4.2884826654462901e-02  2.1201832278636924e-04  3.4544036416004486e-04  1.8083470464870202e-04  3.5641447906542084e-02  4.4220230676532538e-02  3.8379909158532281e-02  3.5158635624253115e-02  1.5069202422314361e-02  2.7552292719851164e-03  4.8264554569169227e-02  1.2528311564930985e-03  4.2616664961792887e-02  5.3731009352034891e-02  5.3241073278311679e-02  5.5907386595938722e-03  1.9977519332059067e-02  3.4925078968928387e-02  1.8516616816873808e-02  4.7555975109073590e-04  4.3247960258011572e-02  1.5250079370267652e-04  3.1482024273309830e-02  2.8510361075462294e-02  7.0873131802222461e-02  4.3036330119427098e-02  4.6583123235454452e-02  4.4300254566437131e-02  4.7209432502757852e-02  3.1474228142445082e-03  2.7222178645432259e-02  5.0651164233379946e-02  1.8322097150656060e-02  6.4536945795790049e-03  3.2628408146662284e-02  4.1808821498171847e-02  2.2352472319961784e-02  1.0203484421172269e-02  2.7289159928201013e-02  2.2247734375721289e-04  8.5118100922210323e-04  4.0664703730710232e-02  4.7624934044142433e-02  2.4190431645664452e-03  2.1291751020962172e-04  2.9637185309034671e-04  1.2789120124727861e-02  6.2002653353864068e-02  8.5787027797351017e-03  1.6456716953663495e-02  4.2218848634596864e-02  3.3960625530238535e-02  2.6125080534198796e-04  7.8451585523999653e-02  1.6950684363005941e-03  1.3201021850815220e-03  3.4490500839963224e-02  3.5984891572288215e-02  4.2715304937920980e-02  2.6617437013446408e-04  1.2340214130187447e-03  3.2931746127263167e-04  3.0587689863890695e-04  4.7968985469106228e-04  2.9245939092968040e-04  1.3677239725389909e-04  7.7000545873723070e-02  3.4876407302488269e-02  4.1401243551846580e-02  3.9803790741153762e-02  1.3418064606360684e-02  3.1452951306733680e-02  4.1735953437033756e-02  5.8888734200090850e-03  1.4638541693391412e-02  6.4182430182533376e-02  4.5276381601420763e-03  4.9005607216845741e-03  1.6685139363776757e-04  2.3547411030038889e-04  7.6914329030052615e-04  5.5543078039494472e-04  3.8619601325234669e-02  1.7257315734374529e-04  4.2013363116894187e-02  4.3572424959388997e-02  4.3552388561749179e-02  4.0201397828031789e-02  4.2360021837652750e-02  3.9105315375834247e-02  4.2375885150259744e-02  4.5623293368443590e-02  4.0368908360747052e-02  3.7902753445136758e-02  3.4589501184898869e-02  4.1521043004084345e-02  2.5406525893133317e-02  1.5858380836672082e-04  1.3508785761581741e-03  1.4441764155667760e-03  8.6478721483751160e-04  4.8574379793071276e-02  5.8411057270876202e-04  1.0559474470120075e-03  3.4812484936402779e-04  8.2318325935138109e-04  2.3168411352082649e-04  1.8087966132108615e-03  3.6220057435928463e-03  3.0085650176537742e-03  4.8491586480230589e-03  2.5123139984898880e-03  4.4098187461030544e-02  1.6950544586182093e-03  1.3822091474121940e-02  4.2740622770641008e-02  7.2097532493660584e-03  2.8100007139820873e-02  3.0352891760606795e-03  4.0497258969963167e-02  1.0614113798624104e-03  2.3345572754304421e-04  2.7076929769139201e-04  3.4722486940090017e-02  5.7033868678904587e-03  3.1440163924738480e-02  5.3344697357260357e-02  5.6585890510979807e-02  1.0704422737276426e-02  3.6134796638646695e-02  3.2057325876419144e-04  1.1688349482867303e-03  4.0823829108013968e-03  4.0182301663550359e-03  4.3702062479050022e-02  1.3128279328690231e-02  3.9641153784268759e-02  2.7960649142329843e-02  2.8851237075830163e-02  4.8500386900903802e-02  4.3578334813309277e-02  4.7621739346788948e-02  6.1190760313937376e-03  1.6657328492271611e-04  2.8476910509537813e-04  2.5408660342258809e-04  3.3098655062711715e-02  3.0753529105430916e-02  4.3139984397279098e-02  2.1036363159615150e-02  3.7474744562297241e-02  1.4318117742917458e-02  4.1686158775842745e-02  3.8693403928834302e-02  2.7593916726891106e-02  7.2954444139428322e-03  1.9111411849520473e-02  3.1381174177394729e-02  3.6028172486367457e-02  3.8135143563119818e-02  3.9100503458812566e-02  1.6181144824548584e-02  1.7379602682397929e-01  1.7925111370390157e-03  6.9211113799260565e-04  7.5874752098341487e-04  8.0262162908897976e-03  1.7827840899321313e-04  3.9100705590490274e-02  2.2737445801011912e-02  7.7905689827982908e-04  3.5232688755603011e-04  2.3749118720719703e-04  5.9772084838718278e-02  4.9247917365018906e-02  5.2450706077419897e-02  5.9086323731021245e-04  4.0847998471367605e-04  4.2136802057756155e-04  3.9125649538892203e-04  5.2734153953475256e-03  3.9257697875339032e-02  3.5576291661581563e-02  3.7538585688056424e-02  9.4190548897203662e-04  4.1586902800258348e-02  2.4980439661237636e-03  4.0713744544952267e-02  3.8845291714550999e-02  3.1629351597662551e-02  3.1483362209473197e-03  5.4191343088369807e-02  3.4441516664450528e-02  2.1819042139980742e-03  5.1162625499527867e-06  5.3094378104830562e-06  3.8146490042585752e-06  3.0360372467303051e-04  2.4349479947588424e-03  3.2862330806765277e-04  1.8683262773895780e-04  3.7161459271503273e-06  1.5010504570615431e-02  8.1740817540045696e-02  1.0143538496074203e-01  3.8482832598990026e-02  6.1084972434504749e-04  2.4227227787257683e-02  3.5200821440050961e-02  3.0060944067118980e-02  3.1489918741844765e-02  4.2587921818765542e-02  4.1802902443425959e-02  4.5505977463670008e-02  4.2780039804351293e-02  2.2622007495660144e-02  4.2503072925895585e-02  3.3893673250634443e-02  3.0652551774252367e-02  4.6940728009952130e-04  2.3920435706743831e-03  5.0892434815936992e-03  2.5395734462574319e-03  2.2430781584897837e-03  1.3657973201127425e-03  4.9792069066466729e-02  1.5513502057522511e-02  1.9258054096838172e-04  2.0651467606954514e-04  3.4819552349850115e-04  4.5897621245431758e-02  2.0387261145878420e-04  1.5534388565729615e-04  3.0590281763557523e-04  2.1495566194539701e-02  2.7408913006721689e-02  2.6345861662009973e-02  1.6920524305331236e-04  4.0306605099563443e-02  4.2848380398565410e-05  6.3746785060244983e-03  2.8340114591453830e-02  1.4455967590998729e-04  3.2843959092430854e-04  4.2742258600096825e-02  3.1066332030482920e-02  2.8924845635774896e-02  3.4572525485532524e-02  4.0511042205829194e-04  6.0874641279122120e-04  4.5207788022448889e-02  4.5032524385773334e-02  4.0783320408665891e-02  3.4565907808408257e-02  4.5986769156798987e-02  4.9792522344106450e-02  5.2895309210648643e-05  5.1229277597683393e-05  2.5008783727918062e-02  2.7420832864233757e-02  3.5322983569555440e-02  2.2400915842770371e-02  4.9445198570187560e-03  9.5889651390682722e-03  1.7388694234414238e-02  2.4298142462236119e-02  6.3637592403690115e-04  2.4921624866505582e-02  1.9193215576845157e-04  1.3812318363601745e-02  4.0830788716081902e-02  1.0723376206050609e-03  4.8004661837552255e-05  2.0731840006148016e-04  4.3380865718072792e-05  1.7591359034774541e-04  3.4922188316153466e-04  5.5745061619030128e-04  8.9217559319469111e-04  9.7211448022558374e-04  1.0898958676524094e-02  4.1816654975330228e-02  4.3698609033378342e-04  2.2805449870045815e-04  3.6178068969452061e-02  4.0821638801797386e-02  3.1726420926302395e-04  3.3454251118984735e-04  4.7642207822096942e-04  3.1318091597131337e-04  3.0441994629526504e-02  2.5617406448286615e-02  3.5159968459984967e-02  3.4471757819993509e-02  4.7497503453267691e-02  2.9623030664590641e-02  2.7159951611686838e-02  4.2821113162147754e-02  3.5372175771263725e-02  3.4232093460701232e-02  1.7258860259410772e-02  3.7902375551081384e-02  2.5332677441706287e-02  2.9899959067648814e-02  5.6541127867516050e-03  3.7095929632037457e-02  2.6784526895116895e-03  3.2861996202702318e-02  9.6596076687567173e-03  4.2246632139915870e-02  2.7589835926173625e-04  3.2987236562333655e-02  4.8404817659410973e-02  4.5368133999979514e-02  1.0729821262756527e-02  7.9049750280103265e-03  1.8483490592197281e-04  2.2919929805690820e-04  5.0946304087030131e-02  3.6868868280655144e-02  3.7931448503439776e-02  4.2595893012465578e-04  4.7626121479594476e-02  4.1830091475643809e-02  3.4582184826988369e-02  2.8882102995955315e-04  2.5154891765229593e-04  4.4067067685986351e-04  1.8208131402064012e-04  4.2864915447599761e-04  8.9253062344739350e-05  3.3408538938571104e-02  3.6787446981674590e-02  3.1859951728770826e-02  4.3863607655457571e-05  3.0784720201967826e-04  5.1290729780908561e-04  4.4565315721373820e-05  1.4827573794024652e-04  1.3617825535525610e-04  4.7795073132015350e-02  1.2505144264474486e-03  1.3206829481779826e-04  2.9583799972393300e-04  2.7484990187458366e-04  2.0342713226194619e-04  4.2852814228447569e-02  4.3316409607289386e-02  4.2563544945613908e-02  2.8274898531838955e-02  2.4673938904160937e-02  4.2320486650628597e-02  6.2670985535740430e-04  1.0116865135782725e-02  7.3349960667235816e-04  3.2124126486147486e-02  2.6165998563974269e-02  9.4773364843443973e-03  4.1904290184291371e-02  1.5593686694831941e-02  7.6704903826183401e-03  3.9832809095945589e-02  3.4131284597126582e-02  2.7364680013258790e-04  2.2258847089887544e-04  4.2620460333440170e-02  1.5365173794066611e-03  4.8980060255013943e-04  4.2023193969034138e-02  4.4929383207368667e-02  4.2423282946801567e-02  3.5821811144132951e-02  1.0039425939423993e-04  4.2173485072723810e-02  3.2101617961545481e-02  2.4497695008382454e-02  1.980191203