<?xml version="1.0"?>
<VTKFile type="UnstructuredGrid"  version="0.1"  >
<UnstructuredGrid>
<Piece  NumberOfPoints="1515" NumberOfCells="2858">
<Points>
<DataArray  type="Float64"  NumberOfComponents="3"  format="ascii">-0.5 -0.0001 0  -0.5 -0.5 0  0.5 -0.5 0  0.5 0.5 0  -0.5 0.5 0  -0.5 0.0001 0  0 0.0001 0  0 -0.0001 0  0 -0.5 0  0 0.5 0  0.5 0 0  -0.25 0.0001 0  -0.25 0.5 0  -0.25 -0.0001 0  0.25 0.5 0  0.25 -0.5 0  0.2500374937493749 0.1875187468746875 0  0.5 -0.25 0  0.25002499 -0.125 0  -0.125 -0.25005 0  -0.125 0.25005 0  0.5 0.25 0  -0.25 -0.5 0  -0.5 -0.25005 0  -0.5 0.25005 0  0.125 -0.3124916691673332 0  0.125 0.3437443727884549 0  0.3187498332767468 -0.3187498332767468 0  -0.3125 -0.3125124974994999 0  -0.3125 0.1875875025005001 0  0.04436566007004419 0.1785185187387698 0  0.3437706224620182 0.3437706224620182 0  -0.359407810625422 0.3594296915637348 0  -0.359407810625422 -0.1406703084362652 0  0.08209948494863104 -0.1484533219292508 0  0.3281296842191969 0.03125624875007487 0  0.1612337437527647 0.0454945319044936 0  0.5 -0.125 0  0.3736573308633327 -0.1902100573489204 0  -0.05632383965282133 -0.1281636979131719 0  -0.1875249975 -0.37501249874975 0  -0.02161822989173764 0.354580025951059 0  -0.2160757009003203 -0.1393657085918785 0  -0.01783801249259284 -0.3526895391541273 0  -0.2160757009003203 0.3607342914081215 0  -0.125 0.0001 0  -0.125 -0.0001 0  -0.1875249975 0.1250875012502501 0  0.5 0.125 0  -0.375 0.0001 0  -0.375 -0.0001 0  -0.5 0.125075 0  -0.375 -0.5 0  -0.5 -0.375025 0  0.3828324180271084 0.1875 0  -0.125 0.5 0  0.5 -0.375 0  0.375 -0.5 0  -0.125 -0.5 0  -0.375 0.5 0  0.125 0.5 0  0.125 -0.5 0  0.5 0.375 0  0.375 0.5 0  -0.5 -0.125075 0  -0.5 0.375025 0  -0.06200365993838185 0.1102431244359298 0  0.3921286730834987 -0.07100003899567721 0  -0.001178265146973292 -0.2342725669761844 0  0.219639755882476 -0.3848202826230195 0  0.1764909845376315 -0.2113963654501196 0  0.2343901841136658 0.3031458088961128 0  0.1561195030924493 -0.06553680147678266 0  0.1485501800845649 0.1522005597879607 0  0.07430925316253632 -0.4062458345836666 0  0.1875 0.4218721863942274 0  0.0625 0.4218721863942275 0  0.2776974776570886 -0.2252166395728846 0  -0.2310132101974821 0.2556304703469177 0  -0.2310132101974821 -0.2444695296530824 0  -0.3906265628125469 -0.3906296862497968 0  -0.3906265628125469 0.1094703137502032 0  -0.2812687506255001 0.09383750062512503 0  -0.2812687506255002 -0.406262499374875 0  -0.4101472686723712 0.2071199254696213 0  -0.4101472686723712 -0.2929800745303787 0  0.2470275540227946 -0.02585328932041452 0  0.4068247800249947 0.09140209453477602 0  -0.1176406316218027 0.3957739114529177 0  0.4080574838155757 -0.2809016730332933 0  0.3125 -0.4219344228213859 0  0.4088486496673779 -0.4088486496673779 0  0.1167033063099591 0.2455046542815969 0  -0.02381261413756171 0.2533622281544139 0  0.02735543470987723 0.08802303626707711 0  0.3144655814479235 0.2551097933485553 0  0.2801337679615206 0.4118308473117793 0  0.4101587089138863 0.2773478512831281 0  -0.09689860681079282 -0.4078094624324944 0  0.213976519574722 -0.2941495474331945 0  -0.318965898965983 0.2781458178971435 0  -0.3125 0.4357826538464097 0  -0.318965898965983 -0.2219541821028565 0  -0.3125 -0.06431734615359029 0  -0.4357704230694522 0.3125375 0  -0.4357704230694522 -0.1875625 0  0.4114732283419867 0.4114732283419867 0  -0.4234646583494089 0.4234743507195528 0  -0.4375 -0.0001 0  -0.4375 0.0001 0  0.3164258563077259 0.1230517971377134 0  0.04931026741366369 0.300666438050672 0  0.2304865209107167 0.1009680687096636 0  0.02061587644269779 -0.08558486663800556 0  0.09390691211100699 -0.2329943594667239 0  0.08896107880644889 -0.006809950500825342 0  -0.1875 0.5 0  -0.1392552316473008 -0.09019077220175532 0  0.4170297537744737 0.008612617817243748 0  -0.4243694331702185 -0.08478222235936261 0  -0.1416933693607303 -0.1709733993077484 0  -0.09511425322415427 -0.3261090638251909 0  -0.04508670308176045 0.4323857419859515 0  -0.4375 -0.5 0  -0.1187189609291948 0.1687838380963837 0  0.3117722643778845 -0.07351457101062323 0  0.1513445599038777 -0.4251753449096755 0  0.04472177709904164 -0.3011105058468416 0  0.001740722226491711 -0.4250539693950984 0  -0.03075788851996441 0.178560406845558 0  0.1766313586052732 -0.1370243862559475 0  -0.0761550533906552 0.3051296889632589 0  -0.1485469487091727 0.3268133048125818 0  0.1930083860569673 0.2386735170085497 0  -0.0625 -0.0001 0  -0.0625 0.0001 0  -0.2878141094770303 -0.1320687430427478 0  -0.2875995151119595 0.3444544772933048 0  -0.24076159142329 -0.07161431170272106 0  -0.24076159142329 0.428485688297279 0  0.4263700347703773 -0.1373417231816959 0  -0.1856875708107399 0.19821478019016 0  0.09322297310683496 0.06338537237428626 0  -0.07466041728962823 -0.1981228067401687 0  0.009513123991135172 -0.1613319531958586 0  0.3092144166352111 -0.1625850961304104 0  0.3437404121717113 -0.2534277690952264 0  0.4379744025071972 -0.2176839612869874 0  -0.1297061011176702 0.07587858854060507 0  -0.1875 0.0001 0  -0.1875 -0.0001 0  -0.1875 -0.5 0  -0.1633110600051376 -0.3090045011162743 0  -0.21877499875025 0.06259999875025002 0  -0.21875 -0.4375124968750625 0  -0.25001874937525 -0.3437749968748749 0  -0.2500187493752501 0.1563250031251251 0  -0.5 -0.4375125 0  -0.5 0.06258749999999999 0  0.08904799960830578 -0.08015900599685086 0  0.4108334826406196 0.3444103681633853 0  -0.0625 -0.5 0  0.4414087098136942 0.2187640586098291 0  0.4382361660678968 0.150288432919798 0  -0.3125 0.0001 0  -0.3125 -0.0001 0  -0.3416336343815852 0.06187820768002609 0  -0.3125 -0.5 0  -0.3416336343815852 -0.4382217923199739 0  0.3168016282179152 0.1891009224226147 0  0.4368875345166075 -0.3446993355472595 0  -0.05975660640830217 -0.2683150418715617 0  0.3458703977041003 0.4362216268226822 0  0.5 0.0625 0  0.5 0.3125 0  0.5 -0.0625 0  0.5 -0.4375 0  0.4375 -0.5 0  -0.04197328552084911 -0.06329083152961786 0  0.2257906778195176 0.03586621568734723 0  0.2286857476565217 0.36951555023185 0  0.3548787707540964 -0.3727197121900284 0  -0.1790795964032311 0.4125871598709088 0  -0.0278086253378118 0.05696913583040467 0  -0.2640893654172825 -0.190631969293494 0  -0.1533594275423699 -0.440977335357388 0  0.5 0.4375 0  0.4375 0.5 0  0.1704903431553385 0.2986434949108457 0  0.08721475273820462 0.1287687476127682 0  0.1875 -0.5 0  -0.0625 0.5 0  -0.4375 0.5 0  -0.3125 0.5 0  0.0625 0.5 0  0.125 0.4359369935185367 0  0.3125 -0.5 0  0.1875 0.5 0  0.0625 -0.5 0  0.5 -0.3125 0  0.5 -0.1875 0  0.5 0.1875 0  0.3125 0.5 0  -0.5 -0.1875625 0  -0.5 -0.3125375 0  -0.5 0.1875625 0  -0.5 0.3125375 0  -0.5 0.4375125 0  -0.5 -0.06258749999999999 0  0.3624254104606854 -0.1274336378120225 0  0.1857642697873453 -0.01126882530927889 0  0.03669184495608396 0.2400031982312926 0  0.04068015303098439 0.3629261100764373 0  -0.3851162339112683 0.269026866774594 0  -0.3758332300807991 -0.1995452526923809 0  -0.446144648587372 -0.34378125 0  -0.446144648587372 0.15631875 0  0.3504998016039519 -0.02589861883840036 0  0.2836777321248879 0.07223256202683162 0  0.21875 -0.4466460035652602 0  0.1774501368185094 -0.3419431906700547 0  0.2592287652038449 -0.3368353496836486 0  -0.4486577479325732 0.09383124999999998 0  -0.40625 0.05134972627205531 0  -0.4486577479325732 -0.40626875 0  -0.40625 -0.4487502737279447 0  -0.07907884158578801 0.2127234227389962 0  0.2826672956396865 0.340725212476292 0  0.2552094419670018 0.2470909165729528 0  0.1235030570827048 -0.3722630563328095 0  -0.1765523267242401 -0.2196325740312749 0  -0.3653881707177284 -0.256399556620603 0  -0.3667881364584723 -0.08355066867835562 0  0.1448027058369495 -0.2589171712236736 0  0.2204190758351349 -0.1742931558527921 0  0.125595190811689 -0.1854735536931699 0  0.2751135960266025 -0.2821263988783404 0  0.04714559827497029 0.03095590907283807 0  -0.3694518448121097 0.4428768192088114 0  -0.4163493718954405 0.3665341424253254 0  0.2065677312659464 -0.0897482605048449 0  0.04596501084766122 -0.2039288085874983 0  -0.3678348759016452 -0.3352975447880205 0  -0.3331464162279717 -0.3812640910313448 0  -0.3678348759016452 0.1648024552119795 0  -0.3331464162279716 0.1188359089686553 0  0.006928352547084439 0.4089314103168539 0  -0.008754979675293741 -0.28865535545956 0  0.454824000777391 -0.03125 0  0.4453084397952883 -0.08555947234219879 0  0.0400389030608287 -0.3591593324500765 0  -0.3565047668221014 0.2214443888382642 0  -0.1767790649240408 0.276160039146296 0  -0.4407450517553578 0.2555055370068006 0  -0.4424041217249974 -0.2449977221857678 0  -0.0101841459589043 0.1278467808234489 0  0.1946666826231925 0.1831558471035277 0  0.1023041143695485 0.1885027832887665 0  0.1383943178482503 0.09688656085697314 0  0.1738321521953076 0.3687430643819201 0  0.09375 -0.4563154147117792 0  -0.2831024225358643 0.2351964925231401 0  -0.2621637468582121 -0.2899792135739121 0  -0.2423367266168128 0.3108531660207947 0  0.3858515397252176 -0.3293494555229365 0  -0.09921103529049136 0.4494480844437962 0  -0.1387217209722605 -0.3554699308920083 0  -0.06600083182100508 0.3836351847814501 0  0.1309954671830858 -0.1114321286398948 0  -0.09375 -0.04518048647049126 0  0.04208778762923838 -0.03517827620526504 0  -0.08165643227347709 0.05080163226699017 0  0.2987692351119484 -0.01319048554596328 0  -0.4136288823076366 -0.1379960981994732 0  -0.1856470434007142 -0.05707095126749213 0  -0.15625 0.4588983004055426 0  0.301492156088943 -0.3696020442065089 0  0.2261014656445051 -0.2255765688706129 0  -0.0254711816102797 0.3040308714413081 0  -0.2359814035109398 0.2051098885755096 0  -0.2142660728025848 -0.3074346058732286 0  -0.0444842016587006 -0.3987296650352232 0  -0.06299926340697812 -0.4476735265309565 0  0.2370119789310965 0.4463270361850639 0  0.1025408210352734 0.3898406831534957 0  0.02523186154102609 0.456121755814222 0  0.2703582881149408 -0.4522472093634566 0  0.34375 -0.460967211410693 0  0.1519529867048281 0.2096636028655708 0  -0.1028373102819492 0.3477334553616848 0  0.2543545123482477 -0.07525044338081299 0  0.4586232703312498 
[...]
<PointData  Scalars="f_184501"> 
<DataArray  type="Float64"  Name="f_184501"  format="ascii">7.5045764866771592e-07  2.9516129449043654e-04  1.6617413361836125e-01  8.2892316760302259e-02  1.2985022050972092e-03  2.0246927783491448e-07  9.9823650229564975e-01  9.8967860229210258e-01  7.5016670766315206e-03  8.7810424582683531e-03  3.0823482480825434e-02  6.4896487331931999e-04  1.6163646930033166e-04  6.9085469553932532e-04  4.4946873251547455e-02  2.9983601946666182e-02  7.4690228780667084e-02  5.8678263850576687e-02  8.4262515901257815e-02  7.0683483222534966e-04  6.8564522901559536e-04  6.1487441966249390e-02  5.3888556725151953e-04  3.8834230453533680e-04  4.6149580862249966e-04  2.5154647346677380e-02  2.8372137654628114e-02  6.0408211850938018e-02  2.0875758437272987e-04  5.3691116526801113e-04  1.5504425033388509e-02  6.1767027119736959e-02  3.4554439785539797e-04  3.6189032627672322e-04  2.8907309447708116e-02  5.4857247217589278e-02  1.9495967664296271e-01  4.1046593017921282e-02  6.5497981327160198e-02  8.6502172676510209e-04  5.9863774248447240e-04  6.5587104241216177e-03  4.3312691562970095e-04  5.8866777525133042e-03  3.1273739167322993e-04  1.7945594666434008e-03  2.1844842448086616e-03  4.7448244899766037e-04  3.9676979978979114e-02  6.5421411349570830e-05  6.7483902521636775e-05  5.7911635771395248e-05  1.3364921231557393e-04  6.1001869022176585e-04  6.2123221384759432e-02  1.8854314028725887e-03  7.2369970194814934e-02  5.2665941496972096e-02  2.4293500096031076e-03  2.8421866559805322e-04  2.4615748616689748e-02  1.6630288557019625e-02  7.8193502133119042e-02  6.2847315197932116e-02  5.8342342889797412e-05  1.0956238527575950e-03  8.2606462878289863e-04  5.2396493050531331e-02  6.6866508902855672e-03  3.5095762454713166e-02  5.2070393980867512e-02  5.3445447543418262e-02  1.1590277183953122e-01  6.9694419444061156e-02  1.3710651774282623e-02  3.6298200272856511e-02  1.6056512663490934e-02  6.7174041229941014e-02  3.5650475544818556e-04  2.9981373323657336e-04  2.2613637315604249e-04  2.4895269981415068e-04  4.9215141380423450e-04  1.6681628294769237e-04  3.8741163370230433e-04  3.0036596447834531e-04  8.0472144841379489e-02  4.9389328154735422e-02  1.7915511657549817e-03  6.6029190725286790e-02  4.7086761523826313e-02  7.2326653238664773e-02  3.4089742610851348e-02  4.8991705400933108e-03  1.2545102532218180e-02  6.5948097133498335e-02  5.0969409540057700e-02  6.4779502246901682e-02  2.4847690568456501e-03  4.5083815729009213e-02  4.3103786860421948e-04  1.2939238292165848e-04  3.8394297030261583e-04  3.3330498969255028e-04  5.1530865155440030e-04  2.3944875137503095e-04  6.8022302267429335e-02  5.7361273699215376e-04  8.6659048778846947e-06  7.2717321391463842e-06  6.7987854691460542e-02  1.5204815338548146e-02  9.0739231075414387e-02  7.1527711508853680e-03  2.4327254138470870e-02  7.7038272585883083e-01  6.3395495661881936e-04  5.1931408591856609e-04  4.3326924381197292e-02  1.0073274921121429e-04  2.5533795105237212e-04  1.9530957800421654e-03  5.3473821911899410e-03  1.4770604591815510e-04  3.8745825450055499e-04  6.7655586447926380e-02  2.1342734582252290e-02  1.2086263179748837e-02  7.2911611659949504e-03  2.7454348831320416e-03  7.4859918620608631e-02  2.5514808139808702e-03  7.9135999567875456e-04  5.6810853990991159e-02  6.3916180759285924e-03  7.7274643494565252e-03  4.7937226575297089e-04  2.5292522563026023e-04  5.4028750946838087e-04  2.1046758896773509e-04  5.3489489516793165e-02  3.4875314431249662e-04  1.2360375209501805e-01  1.2771106432749382e-03  6.9314081848035301e-03  7.2954072457133562e-02  6.6759274739109878e-02  5.9362143099137885e-02  7.2320351211565311e-04  1.2143633450969367e-03  1.3581990227698221e-03  1.2501136113820289e-03  6.0499739611050553e-04  6.1209700064417799e-04  5.6151246159967234e-04  2.1311237591063341e-04  5.2979217211501393e-04  5.0671600554818414e-04  7.2627226924663794e-06  4.1743941970894927e-02  6.6789113740229181e-02  4.5394536712396912e-03  5.8543005813786408e-02  5.1101670113552218e-02  2.5417918903903962e-04  2.6553418355357679e-04  2.5009038768616964e-04  2.3294025138323059e-04  1.4283028638106563e-04  7.0066520047833494e-02  7.0415405122442501e-02  2.7753582275477969e-03  5.9283041293216328e-02  3.2735703516672959e-02  7.1373102690458448e-02  3.3921181458497873e-02  9.5818580316546026e-02  8.2182451653742772e-02  2.6385440122626783e-03  9.2354022832123878e-02  4.5584509020637140e-02  6.1240737118832662e-02  6.6498057042031994e-04  3.0362724747934602e-03  4.2654651700659561e-04  1.4513183764552657e-03  8.1954576128944606e-02  7.3284607689951806e-02  4.1557726371760195e-02  3.8495992902067393e-02  2.2982907772871521e-02  4.4170513693901035e-03  7.2163178195201792e-04  9.8616402877445034e-05  1.5856895733849904e-02  2.5689505128750331e-02  3.8798082737426333e-02  3.5249141016997165e-02  1.1587375801141431e-02  6.5976658577229161e-02  5.0493360380725917e-02  5.0309106740320922e-02  5.3684263198115909e-02  1.9587495000395218e-04  5.5178799027905514e-04  2.0518835436166943e-04  7.9938570207621650e-04  1.3260132088904581e-03  8.1534936981707048e-06  6.3295509663352997e-02  1.5411095748135820e-01  1.3302878090893561e-02  1.3575041210467879e-02  4.5299901403453676e-04  3.5700744942514809e-04  3.8274012710720027e-04  1.9006591870968984e-04  5.3395534665168588e-02  6.8376594227009285e-02  2.8712478443229009e-02  3.2132778087328867e-02  4.7954203923970533e-02  7.5949189932283836e-05  7.7098985971200178e-05  3.9202668791803484e-04  2.0327007150598727e-04  1.1750646080796844e-03  5.5842101402751455e-02  6.4140822875114203e-02  2.1072030339926544e-02  3.0412052238727900e-04  3.1751863072343689e-04  2.3555204772335105e-04  3.4782529309778681e-02  7.1750947469961315e-02  4.0423994711355146e-02  5.8542409771775078e-02  9.2540999242446620e-01  2.8037653946527203e-04  5.0481666977130607e-04  9.8689699936784961e-02  1.4259871324169091e-02  2.2895851915788660e-04  1.4227584104546144e-04  4.2649463774301484e-04  4.3491553250881256e-04  9.4059838297020464e-03  6.2473806002457518e-03  3.8236907405757782e-02  4.4425685337262454e-02  1.0717181896665413e-02  5.0122281772912937e-04  4.1279157787859201e-04  4.2277474890598150e-04  3.0207341298023891e-04  2.8280744425416247e-03  7.1534364919748017e-02  3.6164197386624637e-02  1.0008773383290481e-01  3.6162654978620222e-02  1.4317032546131842e-02  4.7888290307072657e-04  2.4090728690823423e-04  3.0129419402808556e-04  6.7219934045864724e-02  2.6509840113422929e-03  1.1343393629298191e-03  3.7092657006916746e-03  6.5252167962361968e-02  1.4901598795525905e-03  5.5238936075190391e-02  1.3871571787573730e-03  6.1256058188920354e-02  2.1678358201263417e-04  7.8832526522851134e-04  1.1227878100548757e-03  5.1659175553518122e-02  6.0761142891640890e-02  5.6433043713503541e-03  4.4987261663902514e-04  2.9998209932405003e-04  4.4782415817663556e-03  4.0973414471276223e-03  4.3281640672157097e-02  2.2710766346664760e-02  1.1504481420288388e-02  3.5563146656925927e-02  4.8134298425087256e-02  5.2144162970039529e-02  1.9564444079556401e-03  8.4331366245211967e-02  4.1351797665161026e-02  5.6486303025433213e-02  5.7309902413305788e-02  3.6604617391655950e-02  3.1213710732011973e-04  4.7621108060642554e-04  3.1021664883591982e-04  5.4354717247520970e-04  3.0636673889507943e-02  6.5296506179738048e-02  6.4534355067084812e-02  5.5866280346262003e-05  8.0660228621787317e-02  6.8052834386323521e-02  6.4031450762816466e-02  1.3068127051997702e-02  6.9449444245476263e-02  1.0497594519859857e-02  4.8258023979770470e-02  6.4847453056972981e-02  1.6840403880142178e-02  4.4152382883529240e-01  1.7664365171542584e-05  8.8174240696714132e-02  6.5706957567014779e-02  9.6004101295681196e-02  1.8618621474655425e-04  6.7883117417604791e-02  7.4870858418357236e-02  7.2327405582418028e-02  6.2655506002936692e-02  3.4568010397235071e-04  4.1064390518257861e-04  1.0730590987159585e-03  4.4688888764582565e-04  7.0154198371484483e-02  2.0556465794211828e-04  3.3395617232143848e-04  1.6468132138036680e-05  3.7352587466524673e-03  3.9839790874827416e-04  5.3014498920999284e-02  4.5993694376535540e-04  6.0763339636955085e-02  3.9129672063703888e-04  5.7213077272549547e-02  7.5369292741037125e-02  1.8511388679173558e-03  3.3980377621195909e-04  1.1300186740206165e-01  1.3193441837357940e-02  3.8672215022083874e-04  2.7859461894836962e-04  3.5900774026719306e-03  7.5378503132003767e-03  3.6030790273009616e-04  3.7777692189571490e-04  1.1552816591542572e-03  1.5011533203485557e-04  5.3514805481624317e-04  6.7224976387081044e-04  4.6317661089913295e-02  2.9486895548720915e-04  3.2491759958235515e-04  2.5783388319354644e-03  9.0126382131820401e-04  6.1516945621606562e-04  4.5012993999012340e-04  1.3748992021692485e-04  7.2947324135938301e-04  9.4601085767766706e-05  4.1986084611918398e-04  1.7489142736112432e-04  3.8571810344403422e-04  3.6149049382501377e-04  7.6098093605094508e-02  3.0103905804954000e-02  1.9179083637784262e-02  4.4265214869209646e-02  3.5637866039390002e-02  1.4951855026426653e-01  7.0954664144284529e-02  9.9766074611319974e-03  5.2903954658624110e-02  6.5077941719553486e-02  5.8530961339298103e-02  4.7377329684643868e-04  8.3923377073412617e-02  2.6646661909076188e-02  2.8576039233315044e-03  8.7505512852825750e-04  1.0426010087316972e-03  9.0410290680165194e-04  4.0692031900296299e-02  2.0699084046473843e-03  1.9244609536851302e-02  6.6784603458192149e-02  5.3119585303631664e-04  2.7726766580788344e-02  9.5056597050091948e-03  2.1315342023976763e-02  1.9883967594534906e-02  6.5861083865434059e-02  1.4005577087160789e-03  7.6407569539494000e-04  3.7412170097536135e-04  4.4548577238609635e-05  2.3376295473028975e-02  6.2014628024580389e-02  6.9517289401853838e-02  7.7459971107140396e-02  4.5652453087609686e-02  2.1174138613712281e-02  2.2921657512050421e-02  5.9310121564995440e-02  3.0352749031905785e-02  7.0332666712986880e-02  2.5588029347635357e-04  6.0044562936396580e-04  2.9681071728047216e-04  3.2357762267407890e-03  4.4218599397709654e-04  4.0658584739460636e-02  5.8572052024059599e-03  6.4623335584988633e-03  2.5272995173420319e-02  1.4476878686757154e-03  4.9873920014524106e-02  3.5144488578591181e-04  3.7842238088474362e-04  2.8568085753270941e-04  6.3016408340143886e-03  1.0855157964526728e-01  4.3220938904783950e-02  8.5302183082827145e-03  4.0820723110178924e-04  1.6310620014391925e-04  3.1210018653073974e-04  5.8427969517059856e-02  7.7704896324969183e-04  1.1785440368261693e-01  1.7157789976957310e-02  1.8281031312880724e-02  3.6584112843423213e-03  2.8592323008257977e-04  3.2986547018171213e-04  8.0309112761798626e-02  5.3447317440304478e-04  3.4985493520505774e-04  3.7294330051364157e-02  2.2392648641245838e-04  4.6655318397898296e-04  3.1375864453262771e-04  1.6730019924249054e-04  3.6477876952024360e-04  4.5727664546748877e-02  6.2636175443236738e-03  7.6904133871977587e-02  8.2914256135107833e-02  4.3700364647090561e-04  6.7327164591121258e-02  5.6008280326509473e-02  4.5267278606441280e-02  5.0768123571582398e-04  4.6401501640401288e-04  4.6231183797538388e-04  6.0446815856224231e-02  6.1076153781318933e-03  6.2370584332630277e-02  7.0430472556639978e-02  7.7676067792139380e-03  2.5813174880842579e-04  4.5949939715424848e-01  1.2596492964811125e-03  3.8715975261975386e-02  5.3624042799916727e-02  6.8454764056811834e-02  7.7650377556850699e-04  1.2137001129522986e-03  6.3457257314374063e-03  3.1349127655112595e-03  1.4114934107080232e-04  5.9851977471459185e-02  4.9229657590390836e-04  5.1835115097070512e-02  4.5364901378766156e-02  7.3024521224435451e-02  6.5308506717616621e-02  9.1348579700593013e-02  8.1804482360339950e-02  5.7992665880037306e-02  7.8413349852970711e-04  2.6981546071221624e-02  4.6717161053378801e-02  8.2240476845022396e-03  1.5519155650343232e-03  4.0071119945254800e-02  1.5360829772625192e-02  2.6161616607021558e-03  3.0261832609132350e-03  7.7345289858819994e-03  3.2902504752926578e-04  2.4557983629628439e-04  6.7569819692010882e-02  4.4391110683014061e-03  4.6103718310961083e-04  1.7986803320882693e-04  3.3045161956928422e-04  7.1311639218482365e-04  2.4277039111476335e-02  1.3643508898177927e-03  9.8702290078564823e-03  6.4369364486608155e-02  2.2313400826640212e-02  2.9203783086361503e-04  5.8471840891723505e-02  2.7291586648224510e-04  1.7278447503548010e-04  5.2862953991785123e-02  5.7249893042163776e-02  5.8064995839328316e-02  2.1523041012010843e-04  3.2495662005912795e-04  1.7124356573535284e-04  5.0012611626114724e-04  5.3079857054108917e-04  2.5109422396893134e-04  1.3313459016539572e-04  1.8500991200221330e-02  6.0379219443648456e-02  5.1255620868859375e-02  6.7317130413001178e-02  8.6953478010617629e-03  4.5241376839971197e-02  6.6720775654598288e-02  1.1975650823919228e-03  3.5082375688870386e-03  9.1015228500279022e-01  8.1549991133882539e-04  1.0671269189567757e-03  1.1438408943353073e-04  1.9124944509077226e-04  1.5657637863724668e-04  1.8054369650564024e-04  3.6138132801422897e-02  1.1828808543834240e-04  5.5480456685972963e-02  6.2462931995633193e-02  6.3443616621331800e-02  7.7854754874637888e-02  7.1692346088761114e-02  6.9036560498999824e-02  6.7776091225633925e-02  7.3519187547659723e-02  6.7216324530522939e-02  6.3385672970011298e-02  6.0102022125881220e-02  6.6333243124076305e-02  3.7543633348273243e-02  4.7457391829991923e-04  9.3144031143378952e-04  9.7282084021790567e-04  8.6394446453438335e-04  7.8676003083087490e-02  1.9190394408591179e-04  1.8044946757701756e-04  5.3710214265666970e-04  6.6355394251601380e-04  5.4099862052131261e-04  3.2362897406085743e-04  1.0808896086804698e-03  8.1572236009205921e-04  1.7529247938487128e-03  5.9847268152892863e-04  6.8762234753453139e-02  2.9972845241979935e-04  5.2192988697931288e-03  1.9363027347544898e-01  1.3748313537027405e-03  1.8159908552581899e-02  3.9697581484694663e-04  4.7661774280786495e-02  1.6840060794781392e-04  1.3146948520318427e-04  1.4265240731586699e-04  5.9862226468020238e-02  4.8002151364320064e-04  5.4568014567276328e-02  7.8925590019470665e-02  3.7835596930993830e-02  5.2962945686657386e-03  7.6112340321727867e-02  2.3078957936698228e-04  1.9048794925475058e-04  2.1841148268885429e-03  2.7791006911847887e-03  6.3310149778824834e-02  1.1040312304279329e-03  6.8633679738334355e-02  1.7273016935496668e-02  3.3668829231973806e-02  7.4553051158780914e-02  6.6386912185696367e-02  9.3283968298820727e-02  1.8399152282433987e-03  5.6160053546452828e-04  4.6592705761850690e-04  4.5308673923220920e-04  5.1042515684095492e-02  4.4031326525748996e-02  6.4207339189971208e-02  1.9599418578130145e-02  4.5732248659259421e-02  4.0134148391473929e-03  5.1499434488287213e-02  3.9703864333751587e-02  4.5818011859884308e-02  3.3861696091640695e-03  7.1880302460709689e-03  4.8632526549014787e-02  5.6061112018318732e-02  6.0718616945086651e-02  6.2757573092994068e-02  4.6286179392058891e-03  9.5333362084483697e-01  3.4514778795988844e-04  4.3741803574121057e-04  4.4985051582324936e-04  1.3426129628431567e-03  5.0253616966973447e-04  6.6633168287241265e-02  1.5937156548650577e-02  1.3442045946385691e-04  4.0911264453291494e-04  5.3377514343032752e-04  5.4616842721838796e-02  2.3019219765860039e-02  6.5624784952916279e-02  4.8832557540879804e-04  3.7425188071446900e-04  3.2774765004369084e-04  3.6475889701109249e-04  1.9706728996617216e-03  1.0072269141967750e-01  9.5126676658537024e-02  1.4229900873512535e-01  2.6801068200698984e-04  7.3494636003710243e-02  3.4603475026918304e-04  5.4897617569828243e-02  7.0308276893827834e-02  1.8625713285767211e-02  4.8787163606450599e-04  7.8944873612416158e-02  2.8008053322499872e-02  3.3043636519154945e-04  2.1701608838381714e-06  2.2117163614193100e-06  1.6797594191624934e-06  4.2749941931191171e-04  6.8762689560175952e-04  2.0322787638588481e-04  4.1712529014534689e-04  1.6775147319320213e-06  5.7719408537154548e-03  1.1587463945825223e-01  1.4397785356578399e-01  4.0247115649364937e-02  6.8899166318343624e-04  1.3080730422112935e-02  3.1018956550230969e-02  2.1077587183724496e-02  2.4083834876859608e-02  4.8957666551257106e-02  4.8093395389339669e-02  6.5725535544453234e-02  6.3722570667295170e-02  9.6850919626611260e-03  5.7229022799642724e-02  5.9058133542667923e-02  3.4371887750786180e-02  6.9155598481556520e-04  3.8787473816596750e-04  1.0481705891830393e-03  1.8129424480917320e-03  1.5351216849817260e-03  1.2398494105526896e-03  5.1168033271927253e-02  1.3992073247705477e-03  4.3406943063844351e-04  4.6401119627558851e-04  3.5209863378950207e-04  7.2959729316353833e-02  4.0528463844820110e-04  3.5714921203563782e-04  2.4745100094891639e-04  9.5211944340080415e-03  1.4594472704189275e-02  3.5312920916932410e-02  1.0007533846497583e-04  1.3634665625587528e-01  2.3023825449711667e-04  5.4972967199378516e-04  3.8764781946170258e-02  1.0785952284394265e-04  4.4260875004855971e-04  5.8405048315288262e-02  5.5487134334211187e-02  2.0053253664180516e-02  3.0176105909686789e-02  2.7652985440425467e-04  8.9470605935760005e-05  7.5084544175559612e-02  6.7924106996683567e-02  6.6635122699995303e-02  6.2426263548612443e-02  6.3172541646910885e-02  7.8981025142287123e-02  2.4256000220116337e-05  2.5948870936313336e-05  3.1062701488467574e-02  3.5711552456968852e-02  4.5311232719226449e-02  1.2097321789468367e-02  1.0855573916918068e-03  2.9338106636055562e-03  1.4025886217815165e-02  3.1620118852251897e-02  1.3068845655481759e-04  2.6279093543468073e-02  4.8571073882223704e-04  9.4346053164970720e-03  4.9363418972018756e-02  1.3315412231588290e-03  2.2861405235980975e-05  1.1623521049036167e-04  2.3443383534474056e-05  1.1219014520792780e-04  5.8195944473695435e-04  6.0402173316245300e-04  9.4966320948929766e-04  1.1546805995544032e-03  3.5648538233100813e-03  5.3011766022232829e-02  4.8417333903103481e-04  1.8064904076642440e-04  4.1371682421495165e-02  5.3608317194785753e-02  3.1491516556920714e-04  3.8489730150023004e-04  1.6936037975777378e-04  1.8808088829779429e-04  1.4661497231465759e-02  8.2055086011734949e-03  1.3145797035317354e-02  6.1074993414818514e-02  7.5847999210842371e-02  2.6326963069901121e-02  2.9867453097329189e-02  5.3634116766965008e-02  6.5104799668716226e-02  6.2541920645736049e-02  7.5479557599969173e-03  6.9271682794325051e-02  1.5118693335982146e-02  4.6494758141696131e-02  1.9393073026442063e-03  6.2887832875268820e-02  4.4872020843998782e-04  5.3636769225442346e-02  5.1188140998985566e-03  5.8357743260789310e-02  3.6279041544344065e-04  5.2302107238749840e-02  1.6446064455808312e-01  7.4411913291185738e-02  3.8328474853493747e-03  3.7391165291423127e-03  4.5035875458184372e-04  3.0141495510007478e-04  3.4611687084114607e-03  6.8918509733888925e-02  8.0177986080439953e-02  3.6603872408095980e-04  5.4927496807590750e-02  6.5696151885909979e-02  2.5568249800632385e-02  2.8923072606517236e-04  2.5896804201696883e-04  2.4608730724217113e-04  1.3946998570452931e-04  3.0898685019858024e-04  5.7700556378303448e-05  3.4446251204666857e-02  3.8093482344676605e-02  2.7682503411635768e-02  2.5214745020407047e-05  4.8635047411166549e-04  1.9326829957341785e-04  2.4475502658879386e-05  3.0726683620611005e-04  8.5071557508554119e-05  7.8105339357812498e-02  3.0104292686115061e-04  2.6870992712340599e-04  4.4942739549187581e-04  5.0490761367294554e-04  1.3519995840334482e-04  5.8943680237524533e-02  6.8503094659636457e-02  6.5449613477901278e-02  2.1701137811513817e-02  2.0568248045928619e-02  5.6254698258371059e-02  5.5373142942031475e-04  5.6239805903297282e-04  1.1522028453605566e-04  5.2302143560378878e-02  3.8188147016148651e-02  2.4275085361903309e-03  6.4454465078603349e-02  1.6128068815784553e-03  8.4183036172810191e-04  1.3082740294155992e-01  5.4979741732118573e-02  2.9373335884133936e-04  3.3004683442911160e-04  5.9323214410578341e-02  2.7004341368019592e-04  3.6041818762525088e-04  5.7794104190889206e-02  2.4818162086613169e-02  3.1484769113345620e-02  5.5649150847456814e-02  3.7553765584833084e-04  5.7547559080792815e-02  2.2639375114804683e-02  2.5017942657849953e-02  1.243972949